
                                 *****************
                                 * O   R   C   A *
                                 *****************

           --- An Ab Initio, DFT and Semiempirical electronic structure package ---

                  #######################################################
                  #                        -***-                        #
                  #          Department of theory and spectroscopy      #
                  #               Directorship: Frank Neese             #
                  #        Max Planck Institute fuer Kohlenforschung    #
                  #                Kaiser Wilhelm Platz 1               #
                  #                 D-45470 Muelheim/Ruhr               #
                  #                      Germany                        #
                  #                                                     #
                  #                  All rights reserved                #
                  #                        -***-                        #
                  #######################################################


                         Program Version 4.2.0 -  RELEASE  -


 With contributions from (in alphabetic order):
   Daniel Aravena         : Magnetic Suceptibility
   Michael Atanasov       : Ab Initio Ligand Field Theory (pilot matlab implementation)
   Alexander A. Auer      : GIAO ZORA, VPT2
   Ute Becker             : Parallelization
   Giovanni Bistoni       : ED, misc. LED, open-shell LED, HFLED
   Martin Brehm           : Molecular dynamics
   Dmytro Bykov           : SCF Hessian
   Vijay G. Chilkuri      : MRCI spin determinant printing, contributions to CSF-ICE
   Dipayan Datta          : RHF DLPNO-CCSD density
   Achintya Kumar Dutta   : EOM-CC, STEOM-CC
   Dmitry Ganyushin       : Spin-Orbit,Spin-Spin,Magnetic field MRCI
   Miquel Garcia          : C-PCM Hessian, Gaussian charge scheme
   Yang Guo               : DLPNO-NEVPT2, CIM, IAO-localization
   Andreas Hansen         : Spin unrestricted coupled pair/coupled cluster methods
   Benjamin Helmich-Paris : CASSCF linear response (MC-RPA)
   Lee Huntington         : MR-EOM, pCC
   Robert Izsak           : Overlap fitted RIJCOSX, COSX-SCS-MP3, EOM
   Christian Kollmar      : KDIIS, OOCD, Brueckner-CCSD(T), CCSD density
   Simone Kossmann        : Meta GGA functionals, TD-DFT gradient, OOMP2, MP2 Hessian
   Martin Krupicka        : AUTO-CI
   Lucas Lang             : DCDCAS
   Dagmar Lenk            : GEPOL surface, SMD
   Dimitrios Liakos       : Extrapolation schemes; Compound Job, initial MDCI parallelization
   Dimitrios Manganas     : Further ROCIS development; embedding schemes
   Dimitrios Pantazis     : SARC Basis sets
   Taras Petrenko         : DFT Hessian,TD-DFT gradient, ASA, ECA, R-Raman, ABS, FL, XAS/XES, NRVS
   Peter Pinski           : DLPNO-MP2, DLPNO-MP2 Gradient
   Christoph Reimann      : Effective Core Potentials
   Marius Retegan         : Local ZFS, SOC
   Christoph Riplinger    : Optimizer, TS searches, QM/MM, DLPNO-CCSD(T), (RO)-DLPNO pert. Triples
   Tobias Risthaus        : Range-separated hybrids, TD-DFT gradient, RPA, STAB
   Michael Roemelt        : Original ROCIS implementation
   Masaaki Saitow         : Open-shell DLPNO-CCSD energy and density
   Barbara Sandhoefer     : DKH picture change effects
   Avijit Sen             : IP-ROCIS
   Kantharuban Sivalingam : CASSCF convergence, NEVPT2, FIC-MRCI
   Bernardo de Souza      : ESD, SOC TD-DFT
   Georgi Stoychev        : AutoAux, RI-MP2 NMR
   Willem Van den Heuvel  : Paramagnetic NMR
   Boris Wezisla          : Elementary symmetry handling
   Frank Wennmohs         : Technical directorship


 We gratefully acknowledge several colleagues who have allowed us to
 interface, adapt or use parts of their codes:
   Stefan Grimme, W. Hujo, H. Kruse,             : VdW corrections, initial TS optimization,
                  C. Bannwarth                     DFT functionals, gCP, sTDA/sTD-DF
   Ed Valeev, F. Pavosevic, A. Kumar             : LibInt (2-el integral package), F12 methods
   Garnet Chan, S. Sharma, J. Yang, R. Olivares  : DMRG
   Ulf Ekstrom                                   : XCFun DFT Library
   Mihaly Kallay                                 : mrcc  (arbitrary order and MRCC methods)
   Andreas Klamt, Michael Diedenhofen            : otool_cosmo (COSMO solvation model)
   Jiri Pittner, Ondrej Demel                    : Mk-CCSD
   Frank Weinhold                                : gennbo (NPA and NBO analysis)
   Christopher J. Cramer and Donald G. Truhlar   : smd solvation model
   Lars Goerigk                                  : TD-DFT with DH, B97 family of functionals
   V. Asgeirsson, H. Jonsson                     : NEB implementation
   FAccTs GmbH                                   : IRC, NEB, NEB-TS, Multilevel, MM, QM/MM, CI optimization
   S Lehtola, MJT Oliveira, MAL Marques          : LibXC Library


 Your calculation uses the libint2 library for the computation of 2-el integrals
 For citations please refer to: http://libint.valeyev.net

 Your ORCA version has been built with support for libXC version: 4.2.3
 For citations please refer to: https://tddft.org/programs/libxc/

 This ORCA versions uses:
   CBLAS   interface :  Fast vector & matrix operations
   LAPACKE interface :  Fast linear algebra routines
   SCALAPACK package :  Parallel linear algebra routines


XCFun DFT library Copyright 2009-2010 Ulf Ekstrom and contributors.
See http://admol.org/xcfun for more information. This is free soft-
ware; see the source code for copying conditions. There is ABSOLUTELY
NO WARRANTY; not even for MERCHANTABILITY or FITNESS FOR A PARTICULAR
PURPOSE. For details see the documentation. Scientific users of this 
library should cite U. Ekstrom, L. Visscher, R. Bast, A. J. Thorvald-
sen and K. Ruud; J.Chem.Theor.Comp. 2010, DOI: 10.1021/ct100117s
XCFun Version 0.99 
----- Orbital basis set information -----
Your calculation utilizes the basis: 6-31G(d)
   H-He, Li-Ne : W. J. Hehre, R. Ditchfield and J.A. Pople, J. Chem. Phys. 56, 2257 (1972).
                 Note: He and Ne are unpublished basis sets taken from the Gaussian program.
                 Note: Li and B from J. D. Dill and J. A. Pople, J. Chem. Phys. 62, 2921 (1975).
   Na - Ar     : M. M. Francl, W. J. Pietro, W. J. Hehre, J. S. Binkley, M. S. Gordon, 
                 D. J. DeFrees and J. A. Pople, J. Chem. Phys. 77, 3654 (1982).
   K - Zn      : V. A. Rassolov, J. A. Pople, M. A. Ratner, and T. L. Windus, J. Chem. Phys. 109, 1223 (1998).

================================================================================
                                        WARNINGS
                       Please study these warnings very carefully!
================================================================================


INFO   : the flag for use of LIBINT has been found!

================================================================================
                                       INPUT FILE
================================================================================
NAME = biphenyl-twist.inp
|  1> ! wB97X 6-31G(d)  KDIIS NOSOSCF VerySlowConv Grid4
|  2> %paras
|  3> P1=0,360,25
|  4> end
|  5> * int 0 1
|  6>  C 0 0 0 0 0 0
|  7>  C    1  0  0   1.39291 0 0
|  8>  C    2  1  0   1.38255 120.62811 0
|  9>  C    3  2  1   1.38477 120.20849  359.79201
| 10>  C    4  3  2   1.38477 119.65945    0.09384
| 11>  C    5  4  3   1.38254 120.20864    0.11352
| 12>  C    1  2  3   1.47111 120.67050  180.12721
| 13>  C    7  1  2   1.39291 120.65895  {P1}
| 14>  C    8  7  1   1.38255 120.63028  180.14100
| 15>  C    9  8  7   1.38477 120.20638  359.77332
| 16>  C   10  9  8   1.38478 119.66024    0.11073
| 17>  C   11 10  9   1.38256 120.20856    0.11187
| 18>  H    2  1  3   1.08044 119.51834  178.72699
| 19>  H    3  2  1   1.08055 119.79335  179.67899
| 20>  H    4  3  2   1.08010 120.17046  180.09210
| 21>  H    5  4  3   1.08055 119.99816  180.21642
| 22>  H    6  5  4   1.08044 119.84111  181.06684
| 23>  H    8  7  1   1.08045 119.51700  358.83423
| 24>  H    9  8  7   1.08053 119.79426  179.69915
| 25>  H   10  9  8   1.08010 120.17010  180.13148
| 26>  H   11 10  9   1.08054 119.99775  180.21436
| 27>  H   12 11 10   1.08043 119.84090  181.06359
| 28> **                         ****END OF INPUT****
================================================================================

                       ******************************
                       * Parameter Scan Calculation *
                       ******************************

Trajectory settings:
    -> SCF surface will be mapped

There are 1 parameter(s) to be scanned
            P1: range=   0.00000000 .. 360.00000000  steps=   25
There will be   25 energy evaluations


         *************************************************************
                                TRAJECTORY STEP   1
                 P1  :   0.00000000
         *************************************************************
---------------------------------
CARTESIAN COORDINATES (ANGSTROEM)
---------------------------------
  C      0.000000    0.000000    0.000000
  C      1.392910    0.000000    0.000000
  C      2.097269    1.189673    0.000000
  C      1.422475    2.398897   -0.004344
  C      0.037759    2.410886   -0.006721
  C     -0.668193    1.222177   -0.002402
  C     -0.750413   -1.265321    0.002809
  C     -0.082133   -2.487447    0.005523
  C     -0.787964   -3.676248    0.005235
  C     -2.172682   -3.664343    0.006967
  C     -2.847578   -2.455157    0.006665
  C     -2.143311   -1.265426    0.002313
  H      1.925245   -0.939965    0.020888
  H      3.177692    1.173939    0.005254
  H      1.973367    3.327946   -0.005843
  H     -0.494353    3.351310   -0.013647
  H     -1.748340    1.238298   -0.021737
  H      0.998028   -2.503544   -0.013570
  H     -0.255778   -4.616628    0.002437
  H     -2.723512   -4.593427    0.008884
  H     -3.927994   -2.439496    0.011512
  H     -2.675730   -0.325445    0.019497

----------------------------
CARTESIAN COORDINATES (A.U.)
----------------------------
  NO LB      ZA    FRAG     MASS         X           Y           Z
   0 C     6.0000    0    12.011    0.000000    0.000000    0.000000
   1 C     6.0000    0    12.011    2.632218    0.000000    0.000000
   2 C     6.0000    0    12.011    3.963264    2.248157    0.000000
   3 C     6.0000    0    12.011    2.688087    4.533258   -0.008209
   4 C     6.0000    0    12.011    0.071353    4.555915   -0.012701
   5 C     6.0000    0    12.011   -1.262703    2.309580   -0.004539
   6 C     6.0000    0    12.011   -1.418076   -2.391110    0.005309
   7 C     6.0000    0    12.011   -0.155210   -4.700594    0.010436
   8 C     6.0000    0    12.011   -1.489036   -6.947102    0.009892
   9 C     6.0000    0    12.011   -4.105774   -6.924604    0.013166
  10 C     6.0000    0    12.011   -5.381143   -4.639574    0.012596
  11 C     6.0000    0    12.011   -4.050270   -2.391308    0.004370
  12 H     1.0000    0     1.008    3.638186   -1.776276    0.039472
  13 H     1.0000    0     1.008    6.004967    2.218423    0.009928
  14 H     1.0000    0     1.008    3.729123    6.288906   -0.011041
  15 H     1.0000    0     1.008   -0.934192    6.333059   -0.025788
  16 H     1.0000    0     1.008   -3.303884    2.340043   -0.041077
  17 H     1.0000    0     1.008    1.886000   -4.731013   -0.025644
  18 H     1.0000    0     1.008   -0.483351   -8.724163    0.004606
  19 H     1.0000    0     1.008   -5.146693   -8.680319    0.016787
  20 H     1.0000    0     1.008   -7.422833   -4.609979    0.021755
  21 H     1.0000    0     1.008   -5.056396   -0.615001    0.036845

--------------------------------
INTERNAL COORDINATES (ANGSTROEM)
--------------------------------
 C      0   0   0     0.000000000000     0.00000000     0.00000000
 C      1   0   0     1.392910000000     0.00000000     0.00000000
 C      2   1   0     1.382550000000   120.62811000     0.00000000
 C      3   2   1     1.384770000000   120.20849000   359.79201000
 C      4   3   2     1.384770000000   119.65945000     0.09384000
 C      5   4   3     1.382540000000   120.20864000     0.11352000
 C      1   2   3     1.471110000000   120.67050000   180.12721000
 C      7   1   2     1.392910000000   120.65895000     0.00000000
 C      8   7   1     1.382550000000   120.63028000   180.14100000
 C      9   8   7     1.384770000000   120.20638000   359.77332000
 C     10   9   8     1.384780000000   119.66024000     0.11073000
 C     11  10   9     1.382560000000   120.20856000     0.11187000
 H      2   1   3     1.080440000000   119.51834000   178.72699000
 H      3   2   1     1.080550000000   119.79335000   179.67899000
 H      4   3   2     1.080100000000   120.17046000   180.09210000
 H      5   4   3     1.080550000000   119.99816000   180.21642000
 H      6   5   4     1.080440000000   119.84111000   181.06684000
 H      8   7   1     1.080450000000   119.51700000   358.83423000
 H      9   8   7     1.080530000000   119.79426000   179.69915000
 H     10   9   8     1.080100000000   120.17010000   180.13148000
 H     11  10   9     1.080540000000   119.99775000   180.21436000
 H     12  11  10     1.080430000000   119.84090000   181.06359000

---------------------------
INTERNAL COORDINATES (A.U.)
---------------------------
 C      0   0   0     0.000000000000     0.00000000     0.00000000
 C      1   0   0     2.632218429200     0.00000000     0.00000000
 C      2   1   0     2.612640866453   120.62811000     0.00000000
 C      3   2   1     2.616836058470   120.20849000   359.79201000
 C      4   3   2     2.616836058470   119.65945000     0.09384000
 C      5   4   3     2.612621969191   120.20864000     0.11352000
 C      1   2   3     2.779995012873   120.67050000   180.12721000
 C      7   1   2     2.632218429200   120.65895000     0.00000000
 C      8   7   1     2.612640866453   120.63028000   180.14100000
 C      9   8   7     2.616836058470   120.20638000   359.77332000
 C     10   9   8     2.616854955731   119.66024000     0.11073000
 C     11  10   9     2.612659763714   120.20856000     0.11187000
 H      2   1   3     2.041735704134   119.51834000   178.72699000
 H      3   2   1     2.041943574009   119.79335000   179.67899000
 H      4   3   2     2.041093197248   120.17046000   180.09210000
 H      5   4   3     2.041943574009   119.99816000   180.21642000
 H      6   5   4     2.041735704134   119.84111000   181.06684000
 H      8   7   1     2.041754601395   119.51700000   358.83423000
 H      9   8   7     2.041905779486   119.79426000   179.69915000
 H     10   9   8     2.041093197248   120.17010000   180.13148000
 H     11  10   9     2.041924676747   119.99775000   180.21436000
 H     12  11  10     2.041716806873   119.84090000   181.06359000

---------------------
BASIS SET INFORMATION
---------------------
There are 2 groups of distinct atoms

 Group   1 Type C   : 10s4p1d contracted to 3s2p1d pattern {631/31/1}
 Group   2 Type H   : 4s contracted to 2s pattern {31}

Atom   0C    basis set group =>   1
Atom   1C    basis set group =>   1
Atom   2C    basis set group =>   1
Atom   3C    basis set group =>   1
Atom   4C    basis set group =>   1
Atom   5C    basis set group =>   1
Atom   6C    basis set group =>   1
Atom   7C    basis set group =>   1
Atom   8C    basis set group =>   1
Atom   9C    basis set group =>   1
Atom  10C    basis set group =>   1
Atom  11C    basis set group =>   1
Atom  12H    basis set group =>   2
Atom  13H    basis set group =>   2
Atom  14H    basis set group =>   2
Atom  15H    basis set group =>   2
Atom  16H    basis set group =>   2
Atom  17H    basis set group =>   2
Atom  18H    basis set group =>   2
Atom  19H    basis set group =>   2
Atom  20H    basis set group =>   2
Atom  21H    basis set group =>   2
------------------------------------------------------------------------------
                           ORCA GTO INTEGRAL CALCULATION
------------------------------------------------------------------------------

                         BASIS SET STATISTICS AND STARTUP INFO

 # of primitive gaussian shells          ...  220
 # of primitive gaussian functions       ...  364
 # of contracted shells                  ...   92
 # of contracted basis functions         ...  188
 Highest angular momentum                ...    2
 Maximum contraction depth               ...    6
 Integral package used                   ... LIBINT
 Integral threshhold            Thresh   ...  1.000e-10
 Primitive cut-off              TCut     ...  1.000e-11


------------------------------ INTEGRAL EVALUATION ----------------------------


 * One electron integrals 
 Pre-screening matrix                    ... done
 Shell pair data                         ... done (   0.001 sec)

-------------------------------------------------------------------------------
                                 ORCA SCF
-------------------------------------------------------------------------------

------------
SCF SETTINGS
------------
Hamiltonian:
 Density Functional     Method          .... DFT(GTOs)
 Exchange Functional    Exchange        .... WB97X
 Correlation Functional Correlation     .... WB97X
 Gradients option       PostSCFGGA      .... off
 Hybrid DFT is turned on
   Fraction HF Exchange ScalHFX         ....  0.157706
   Scaling of DF-GGA-X  ScalDFX         ....  0.000000
   Scaling of DF-GGA-C  ScalDFC         ....  1.000000
   Scaling of DF-LDA-C  ScalLDAC        ....  1.000000
   Perturbative correction              ....  0.000000
   Density functional embedding theory  .... OFF
 Long-range corrected/Screened/Range-Separated Hybrid DFT is turned on
   Amount of maximum screened exact exchange              ....  0.842294
   Range separation parameter mu (erf(mu*r12)/r12)        ....  0.300000


General Settings:
 Integral files         IntName         .... biphenyl-twist
 Hartree-Fock type      HFTyp           .... RHF
 Total Charge           Charge          ....    0
 Multiplicity           Mult            ....    1
 Number of Electrons    NEL             ....   82
 Basis Dimension        Dim             ....  188
 Nuclear Repulsion      ENuc            ....    604.9791211657 Eh

Convergence Acceleration:
 DIIS                   CNVDIIS         .... on
   Start iteration      DIISMaxIt       ....     0
   Startup error        DIISStart       ....  0.200000
   # of expansion vecs  DIISMaxEq       ....     5
   Bias factor          DIISBfac        ....   1.050
   Max. coefficient     DIISMaxC        ....  10.000
 Newton-Raphson         CNVNR           .... off
 SOSCF                  CNVSOSCF        .... off
 Level Shifting         CNVShift        .... off
 Zerner damping         CNVZerner       .... off
 Static damping         CNVDamp         .... off
 Fernandez-Rico         CNVRico         .... off

SCF Procedure:
 Maximum # iterations   MaxIter         ....   125
 SCF integral mode      SCFMode         .... Direct
   Integral package                     .... LIBINT
 Reset frequency        DirectResetFreq ....    20
 Integral Threshold     Thresh          ....  1.000e-10 Eh
 Primitive CutOff       TCut            ....  1.000e-11 Eh

Convergence Tolerance:
 Convergence Check Mode ConvCheckMode   .... All-Criteria
 Convergence forced     ConvForced      .... 0
 Energy Change          TolE            ....  1.000e-06 Eh
 Max Density Change     TolMaxP         ....  1.000e-05
 RMS Density Change     TolRMSP         ....  1.000e-06
 DIIS Error             TolErr          ....  1.000e-06


Diagonalization of the overlap matrix:
Smallest eigenvalue                        ... 3.661e-04
Time for diagonalization                   ...    0.081 sec
Threshold for overlap eigenvalues          ... 1.000e-08
Number of eigenvalues below threshold      ... 0
Time for construction of square roots      ...    0.001 sec
Total time needed                          ...    0.083 sec

-------------------
DFT GRID GENERATION
-------------------

General Integration Accuracy     IntAcc      ...  4.670
Radial Grid Type                 RadialGrid  ... Gauss-Chebyshev
Angular Grid (max. acc.)         AngularGrid ... Lebedev-302
Angular grid pruning method      GridPruning ... 3 (G Style)
Weight generation scheme         WeightScheme... Becke
Basis function cutoff            BFCut       ...    1.0000e-10
Integration weight cutoff        WCut        ...    1.0000e-14
Grids for H and He will be reduced by one unit

# of grid points (after initial pruning)     ... 108484 (   0.0 sec)
# of grid points (after weights+screening)   ...  97217 (   0.3 sec)
nearest neighbour list constructed           ...    0.0 sec
Grid point re-assignment to atoms done       ...    0.0 sec
Grid point division into batches done        ...    0.3 sec
Reduced shell lists constructed in    0.9 sec

Total number of grid points                  ...    97217
Total number of batches                      ...     1532
Average number of points per batch           ...       63
Average number of grid points per atom       ...     4419
Average number of shells per batch           ...    50.08 (54.44%)
Average number of basis functions per batch  ...   103.79 (55.21%)
Average number of large shells per batch     ...    35.84 (71.55%)
Average number of large basis fcns per batch ...    75.04 (72.30%)
Maximum spatial batch extension              ...  16.59, 17.73, 23.20 au
Average spatial batch extension              ...   2.30,  2.30,  2.76 au

Time for grid setup =    1.298 sec

------------------------------
INITIAL GUESS: MODEL POTENTIAL
------------------------------
Loading Hartree-Fock densities                     ... done
Calculating cut-offs                               ... done
Setting up the integral package                    ... done
Initializing the effective Hamiltonian             ... done
Starting the Coulomb interaction                   ... done (   0.2 sec)
Reading the grid                                   ... done
Mapping shells                                     ... done
Starting the XC term evaluation                    ... done (   0.9 sec)
  promolecular density results
     # of electrons  =     81.994593808
     EX              =    -64.361259686
     EC              =     -2.721637712
     EX+EC           =    -67.082897398
Transforming the Hamiltonian                       ... done (   0.0 sec)
Diagonalizing the Hamiltonian                      ... done (   0.0 sec)
Back transforming the eigenvectors                 ... done (   0.0 sec)
Now organizing SCF variables                       ... done
                      ------------------
                      INITIAL GUESS DONE (   2.5 sec)
                      ------------------
--------------
SCF ITERATIONS
--------------
ITER       Energy         Delta-E        Max-DP      RMS-DP      [F,P]   Gradient Norm
               ***  Starting incremental Fock matrix formation  ***
                             ****Resetting KDIIS****
                             ****Turning on KDIIS(Cayley)****
  0   -462.9196172078   0.000000000000 0.01580461  0.00077481  0.0906346   0.069827061
  1   -462.9866115349  -0.066994327016 0.01469756  0.00093856  0.0774707   0.059171888
  2   -463.0464130060  -0.059801471097 0.02401375  0.00148846  0.0629692   0.048022631
  3   -463.1176980353  -0.071285029391 0.03568350  0.00218556  0.0384751   0.029402871
  4   -463.1601761044  -0.042478069067 0.00142367  0.00010759  0.0016265   0.001140817
  5   -463.1602565627  -0.000080458324 0.00151654  0.00011916  0.0007799   0.000525119
  6   -463.1602769568  -0.000020394040 0.00027695  0.00001919  0.0001870   0.000168816
  7   -463.1602784094  -0.000001452667 0.00007413  0.00000312  0.0000532   0.000037377
                          ***Energy convergence achieved***
  8   -463.1602784769  -0.000000067425 0.00003963  0.00000141  0.0000164   0.000012243
                           ***RMSP convergence achieved***
                           ***MAXP convergence achieved***
                    *** KDIIS BlockDiag (117.565 sec) ***

               *****************************************************
               *                     SUCCESS                       *
               *           SCF CONVERGED AFTER   9 CYCLES          *
               *****************************************************

Setting up the final grid:

General Integration Accuracy     IntAcc      ...  5.010
Radial Grid Type                 RadialGrid  ... Gauss-Chebyshev
Angular Grid (max. acc.)         AngularGrid ... Lebedev-434
Angular grid pruning method      GridPruning ... 3 (G Style)
Weight generation scheme         WeightScheme... Becke
Basis function cutoff            BFCut       ...    1.0000e-10
Integration weight cutoff        WCut        ...    1.0000e-14
Grids for H and He will be reduced by one unit

# of grid points (after initial pruning)     ... 195296 (   0.1 sec)
# of grid points (after weights+screening)   ... 174576 (   0.5 sec)
nearest neighbour list constructed           ...    0.0 sec
Grid point re-assignment to atoms done       ...    0.0 sec
Grid point division into batches done        ...    1.1 sec
Reduced shell lists constructed in    2.2 sec

Total number of grid points                  ...   174576
Total number of batches                      ...     2739
Average number of points per batch           ...       63
Average number of grid points per atom       ...     7935
Average number of shells per batch           ...    48.32 (52.52%)
Average number of basis functions per batch  ...    99.92 (53.15%)
Average number of large shells per batch     ...    34.32 (71.02%)
Average number of large basis fcns per batch ...    71.69 (71.75%)
Maximum spatial batch extension              ...  18.05, 20.82, 24.07 au
Average spatial batch extension              ...   1.92,  1.90,  2.17 au

Final grid set up in    2.8 sec
Final integration                            ... done (   2.4 sec)
Change in XC energy                          ...    -0.001411467
Integrated number of electrons               ...    82.000014404
Previous integrated no of electrons          ...    81.999790818

----------------
TOTAL SCF ENERGY
----------------

Total Energy       :         -463.16168995 Eh          -12603.27032 eV

Components:
Nuclear Repulsion  :          604.97912117 Eh           16462.31882 eV
Electronic Energy  :        -1068.14081111 Eh          -29065.58914 eV
One Electron Energy:        -1823.13103487 Eh          -49609.91758 eV
Two Electron Energy:          754.99022376 Eh           20544.32844 eV

Virial components:
Potential Energy   :         -923.61782999 Eh          -25132.91889 eV
Kinetic Energy     :          460.45614004 Eh           12529.64857 eV
Virial Ratio       :            2.00587580


DFT components:
N(Alpha)           :       41.000007202015 electrons
N(Beta)            :       41.000007202015 electrons
N(Total)           :       82.000014404029 electrons
E(XC)              :      -47.712159568835 Eh       
DFET-embed. en.    :        0.000000000000 Eh       

---------------
SCF CONVERGENCE
---------------

  Last Energy change         ...   -4.9392e-09  Tolerance :   1.0000e-06
  Last MAX-Density change    ...    6.6903e-06  Tolerance :   1.0000e-05
  Last RMS-Density change    ...    4.0528e-07  Tolerance :   1.0000e-06
  Last DIIS Error            ...    3.5744e-06  Tolerance :   1.0000e-06

             **** THE GBW FILE WAS UPDATED (biphenyl-twist.gbw) ****
             **** DENSITY FILE WAS UPDATED (biphenyl-twist.scfp) ****
             **** ENERGY FILE WAS UPDATED (biphenyl-twist.en.tmp) ****
             **** THE GBW FILE WAS UPDATED (biphenyl-twist.gbw) ****
             **** DENSITY FILE WAS UPDATED (biphenyl-twist.scfp) ****
----------------
ORBITAL ENERGIES
----------------

  NO   OCC          E(Eh)            E(eV) 
   0   2.0000     -10.273290      -279.5504 
   1   2.0000     -10.273114      -279.5456 
   2   2.0000     -10.263987      -279.2973 
   3   2.0000     -10.263983      -279.2972 
   4   2.0000     -10.263928      -279.2957 
   5   2.0000     -10.263927      -279.2957 
   6   2.0000     -10.262342      -279.2525 
   7   2.0000     -10.262337      -279.2524 
   8   2.0000     -10.262257      -279.2502 
   9   2.0000     -10.262242      -279.2498 
  10   2.0000     -10.262225      -279.2493 
  11   2.0000     -10.262215      -279.2491 
  12   2.0000      -1.005106       -27.3503 
  13   2.0000      -0.980089       -26.6696 
  14   2.0000      -0.908483       -24.7211 
  15   2.0000      -0.882573       -24.0160 
  16   2.0000      -0.869802       -23.6685 
  17   2.0000      -0.845746       -23.0139 
  18   2.0000      -0.746980       -20.3264 
  19   2.0000      -0.745400       -20.2834 
  20   2.0000      -0.702792       -19.1239 
  21   2.0000      -0.693932       -18.8829 
  22   2.0000      -0.655624       -17.8404 
  23   2.0000      -0.607759       -16.5380 
  24   2.0000      -0.588948       -16.0261 
  25   2.0000      -0.573969       -15.6185 
  26   2.0000      -0.542889       -14.7728 
  27   2.0000      -0.540659       -14.7121 
  28   2.0000      -0.532466       -14.4891 
  29   2.0000      -0.526592       -14.3293 
  30   2.0000      -0.513571       -13.9750 
  31   2.0000      -0.503264       -13.6945 
  32   2.0000      -0.469095       -12.7647 
  33   2.0000      -0.458893       -12.4871 
  34   2.0000      -0.457709       -12.4549 
  35   2.0000      -0.434873       -11.8335 
  36   2.0000      -0.422120       -11.4865 
  37   2.0000      -0.378917       -10.3108 
  38   2.0000      -0.345902        -9.4125 
  39   2.0000      -0.339502        -9.2383 
  40   2.0000      -0.300686        -8.1821 
  41   0.0000       0.046664         1.2698 
  42   0.0000       0.075658         2.0588 
  43   0.0000       0.100158         2.7254 
  44   0.0000       0.134695         3.6652 
  45   0.0000       0.180278         4.9056 
  46   0.0000       0.202962         5.5229 
  47   0.0000       0.213273         5.8034 
  48   0.0000       0.239915         6.5284 
  49   0.0000       0.254614         6.9284 
  50   0.0000       0.261033         7.1031 
  51   0.0000       0.271615         7.3910 
  52   0.0000       0.278314         7.5733 
  53   0.0000       0.285650         7.7729 
  54   0.0000       0.318453         8.6655 
  55   0.0000       0.337151         9.1743 
  56   0.0000       0.362541         9.8653 
  57   0.0000       0.371179        10.1003 
  58   0.0000       0.380520        10.3545 
  59   0.0000       0.385309        10.4848 
  60   0.0000       0.395811        10.7706 
  61   0.0000       0.415177        11.2975 
  62   0.0000       0.420239        11.4353 
  63   0.0000       0.495415        13.4809 
  64   0.0000       0.502119        13.6634 
  65   0.0000       0.538830        14.6623 
  66   0.0000       0.541989        14.7483 
  67   0.0000       0.614538        16.7224 
  68   0.0000       0.640618        17.4321 
  69   0.0000       0.651839        17.7374 
  70   0.0000       0.655831        17.8461 
  71   0.0000       0.670816        18.2538 
  72   0.0000       0.677117        18.4253 
  73   0.0000       0.677360        18.4319 
  74   0.0000       0.682181        18.5631 
  75   0.0000       0.685241        18.6464 
  76   0.0000       0.685634        18.6570 
  77   0.0000       0.687442        18.7063 
  78   0.0000       0.714671        19.4472 
  79   0.0000       0.716059        19.4850 
  80   0.0000       0.733959        19.9720 
  81   0.0000       0.734601        19.9895 
  82   0.0000       0.735271        20.0077 
  83   0.0000       0.740309        20.1448 
  84   0.0000       0.745775        20.2936 
  85   0.0000       0.747318        20.3356 
  86   0.0000       0.749873        20.4051 
  87   0.0000       0.761815        20.7300 
  88   0.0000       0.763919        20.7873 
  89   0.0000       0.788042        21.4437 
  90   0.0000       0.840397        22.8684 
  91   0.0000       0.845825        23.0161 
  92   0.0000       0.875541        23.8247 
  93   0.0000       0.918409        24.9912 
  94   0.0000       0.920088        25.0369 
  95   0.0000       0.950609        25.8674 
  96   0.0000       0.967132        26.3170 
  97   0.0000       0.969709        26.3871 
  98   0.0000       0.970602        26.4114 
  99   0.0000       0.974559        26.5191 
 100   0.0000       1.015537        27.6342 
 101   0.0000       1.036483        28.2041 
 102   0.0000       1.039704        28.2918 
 103   0.0000       1.044247        28.4154 
 104   0.0000       1.065717        28.9996 
 105   0.0000       1.079736        29.3811 
 106   0.0000       1.087300        29.5869 
 107   0.0000       1.098120        29.8814 
 108   0.0000       1.136028        30.9129 
 109   0.0000       1.137668        30.9575 
 110   0.0000       1.164423        31.6856 
 111   0.0000       1.166188        31.7336 
 112   0.0000       1.230919        33.4950 
 113   0.0000       1.248944        33.9855 
 114   0.0000       1.272256        34.6198 
 115   0.0000       1.303545        35.4713 
 116   0.0000       1.322633        35.9907 
 117   0.0000       1.326817        36.1045 
 118   0.0000       1.340912        36.4881 
 119   0.0000       1.346860        36.6499 
 120   0.0000       1.346965        36.6528 
 121   0.0000       1.373317        37.3699 
 122   0.0000       1.391515        37.8651 
 123   0.0000       1.521280        41.3961 
 124   0.0000       1.530137        41.6371 
 125   0.0000       1.538331        41.8601 
 126   0.0000       1.565758        42.6064 
 127   0.0000       1.573413        42.8148 
 128   0.0000       1.592922        43.3456 
 129   0.0000       1.599170        43.5156 
 130   0.0000       1.600106        43.5411 
 131   0.0000       1.606397        43.7123 
 132   0.0000       1.616671        43.9919 
 133   0.0000       1.621973        44.1361 
 134   0.0000       1.624189        44.1964 
 135   0.0000       1.681318        45.7510 
 136   0.0000       1.691808        46.0364 
 137   0.0000       1.824964        49.6598 
 138   0.0000       1.891353        51.4663 
 139   0.0000       1.912854        52.0514 
 140   0.0000       1.917459        52.1767 
 141   0.0000       1.970380        53.6168 
 142   0.0000       1.975080        53.7447 
 143   0.0000       2.004348        54.5411 
 144   0.0000       2.041587        55.5544 
 145   0.0000       2.050436        55.7952 
 146   0.0000       2.093018        56.9539 
 147   0.0000       2.096885        57.0591 
 148   0.0000       2.116940        57.6049 
 149   0.0000       2.138828        58.2005 
 150   0.0000       2.187277        59.5188 
 151   0.0000       2.188407        59.5496 
 152   0.0000       2.199809        59.8598 
 153   0.0000       2.245850        61.1127 
 154   0.0000       2.246342        61.1261 
 155   0.0000       2.263565        61.5947 
 156   0.0000       2.265958        61.6599 
 157   0.0000       2.301533        62.6279 
 158   0.0000       2.301694        62.6323 
 159   0.0000       2.340251        63.6815 
 160   0.0000       2.349364        63.9294 
 161   0.0000       2.367259        64.4164 
 162   0.0000       2.402495        65.3752 
 163   0.0000       2.424584        65.9763 
 164   0.0000       2.431496        66.1644 
 165   0.0000       2.460321        66.9487 
 166   0.0000       2.492265        67.8180 
 167   0.0000       2.608033        70.9682 
 168   0.0000       2.619764        71.2874 
 169   0.0000       2.698218        73.4223 
 170   0.0000       2.699509        73.4574 
 171   0.0000       2.736027        74.4511 
 172   0.0000       2.751360        74.8683 
 173   0.0000       2.759551        75.0912 
 174   0.0000       2.761590        75.1467 
 175   0.0000       2.817991        76.6814 
 176   0.0000       2.848214        77.5038 
 177   0.0000       2.878225        78.3205 
 178   0.0000       2.880978        78.3954 
 179   0.0000       2.885347        78.5143 
 180   0.0000       2.910245        79.1918 
 181   0.0000       2.939062        79.9759 
 182   0.0000       2.984387        81.2093 
 183   0.0000       3.102282        84.4174 
 184   0.0000       3.131149        85.2029 
 185   0.0000       3.395137        92.3864 
 186   0.0000       3.500949        95.2657 
 187   0.0000       3.635949        98.9392 

                    ********************************
                    * MULLIKEN POPULATION ANALYSIS *
                    ********************************

-----------------------
MULLIKEN ATOMIC CHARGES
-----------------------
   0 C :    0.070227
   1 C :   -0.188519
   2 C :   -0.166857
   3 C :   -0.155134
   4 C :   -0.166838
   5 C :   -0.188238
   6 C :    0.070229
   7 C :   -0.188238
   8 C :   -0.166832
   9 C :   -0.155138
  10 C :   -0.166848
  11 C :   -0.188531
  12 H :    0.157488
  13 H :    0.160585
  14 H :    0.159245
  15 H :    0.160596
  16 H :    0.157446
  17 H :    0.157442
  18 H :    0.160600
  19 H :    0.159243
  20 H :    0.160586
  21 H :    0.157487
Sum of atomic charges:    0.0000000

--------------------------------
MULLIKEN REDUCED ORBITAL CHARGES
--------------------------------
  0 C s       :     3.109762  s :     3.109762
      pz      :     0.969312  p :     2.777931
      px      :     0.885352
      py      :     0.923267
      dz2     :     0.003032  d :     0.042081
      dxz     :     0.006676
      dyz     :     0.006394
      dx2y2   :     0.012699
      dxy     :     0.013280
  1 C s       :     3.155330  s :     3.155330
      pz      :     1.003489  p :     2.996572
      px      :     0.996469
      py      :     0.996614
      dz2     :     0.003385  d :     0.036617
      dxz     :     0.005488
      dyz     :     0.003318
      dx2y2   :     0.011391
      dxy     :     0.013035
  2 C s       :     3.173898  s :     3.173898
      pz      :     0.985347  p :     2.955454
      px      :     1.033727
      py      :     0.936380
      dz2     :     0.003375  d :     0.037504
      dxz     :     0.002246
      dyz     :     0.007046
      dx2y2   :     0.014942
      dxy     :     0.009895
  3 C s       :     3.163758  s :     3.163758
      pz      :     0.994716  p :     2.954290
      px      :     0.961892
      py      :     0.997682
      dz2     :     0.003365  d :     0.037086
      dxz     :     0.005510
      dyz     :     0.003413
      dx2y2   :     0.011070
      dxy     :     0.013729
  4 C s       :     3.173852  s :     3.173852
      pz      :     0.985382  p :     2.955482
      px      :     0.951374
      py      :     1.018727
      dz2     :     0.003374  d :     0.037504
      dxz     :     0.005861
      dyz     :     0.003430
      dx2y2   :     0.011197
      dxy     :     0.013641
  5 C s       :     3.155382  s :     3.155382
      pz      :     1.003449  p :     2.996237
      px      :     1.014247
      py      :     0.978541
      dz2     :     0.003385  d :     0.036618
      dxz     :     0.002156
      dyz     :     0.006651
      dx2y2   :     0.014789
      dxy     :     0.009637
  6 C s       :     3.109756  s :     3.109756
      pz      :     0.969322  p :     2.777933
      px      :     0.885338
      py      :     0.923273
      dz2     :     0.003032  d :     0.042081
      dxz     :     0.006677
      dyz     :     0.006394
      dx2y2   :     0.012699
      dxy     :     0.013280
  7 C s       :     3.155395  s :     3.155395
      pz      :     1.003452  p :     2.996225
      px      :     1.014249
      py      :     0.978524
      dz2     :     0.003385  d :     0.036618
      dxz     :     0.002155
      dyz     :     0.006651
      dx2y2   :     0.014789
      dxy     :     0.009637
  8 C s       :     3.173849  s :     3.173849
      pz      :     0.985367  p :     2.955479
      px      :     0.951382
      py      :     1.018730
      dz2     :     0.003375  d :     0.037504
      dxz     :     0.005860
      dyz     :     0.003430
      dx2y2   :     0.011197
      dxy     :     0.013642
  9 C s       :     3.163763  s :     3.163763
      pz      :     0.994714  p :     2.954289
      px      :     0.961889
      py      :     0.997686
      dz2     :     0.003365  d :     0.037086
      dxz     :     0.005510
      dyz     :     0.003413
      dx2y2   :     0.011070
      dxy     :     0.013728
 10 C s       :     3.173900  s :     3.173900
      pz      :     0.985348  p :     2.955445
      px      :     1.033720
      py      :     0.936376
      dz2     :     0.003375  d :     0.037504
      dxz     :     0.002246
      dyz     :     0.007046
      dx2y2   :     0.014942
      dxy     :     0.009895
 11 C s       :     3.155338  s :     3.155338
      pz      :     1.003517  p :     2.996576
      px      :     0.996487
      py      :     0.996572
      dz2     :     0.003386  d :     0.036617
      dxz     :     0.005487
      dyz     :     0.003316
      dx2y2   :     0.011391
      dxy     :     0.013037
 12 H s       :     0.842512  s :     0.842512
 13 H s       :     0.839415  s :     0.839415
 14 H s       :     0.840755  s :     0.840755
 15 H s       :     0.839404  s :     0.839404
 16 H s       :     0.842554  s :     0.842554
 17 H s       :     0.842558  s :     0.842558
 18 H s       :     0.839400  s :     0.839400
 19 H s       :     0.840757  s :     0.840757
 20 H s       :     0.839414  s :     0.839414
 21 H s       :     0.842513  s :     0.842513


                     *******************************
                     * LOEWDIN POPULATION ANALYSIS *
                     *******************************

----------------------
LOEWDIN ATOMIC CHARGES
----------------------
   0 C :   -0.017233
   1 C :   -0.131798
   2 C :   -0.131250
   3 C :   -0.138194
   4 C :   -0.131278
   5 C :   -0.131768
   6 C :   -0.017238
   7 C :   -0.131765
   8 C :   -0.131283
   9 C :   -0.138192
  10 C :   -0.131251
  11 C :   -0.131799
  12 H :    0.135293
  13 H :    0.137051
  14 H :    0.136814
  15 H :    0.137059
  16 H :    0.135305
  17 H :    0.135306
  18 H :    0.137062
  19 H :    0.136812
  20 H :    0.137052
  21 H :    0.135294

-------------------------------
LOEWDIN REDUCED ORBITAL CHARGES
-------------------------------
  0 C s       :     2.855700  s :     2.855700
      pz      :     0.956567  p :     3.055370
      px      :     1.060148
      py      :     1.038655
      dz2     :     0.006321  d :     0.106163
      dxz     :     0.013639
      dyz     :     0.012578
      dx2y2   :     0.036035
      dxy     :     0.037589
  1 C s       :     2.903051  s :     2.903051
      pz      :     0.994113  p :     3.142530
      px      :     1.069709
      py      :     1.078708
      dz2     :     0.006124  d :     0.086218
      dxz     :     0.011194
      dyz     :     0.006048
      dx2y2   :     0.029739
      dxy     :     0.033112
  2 C s       :     2.906004  s :     2.906004
      pz      :     0.977004  p :     3.136711
      px      :     1.080948
      py      :     1.078758
      dz2     :     0.006145  d :     0.088536
      dxz     :     0.003437
      dyz     :     0.015063
      dx2y2   :     0.036680
      dxy     :     0.027210
  3 C s       :     2.907016  s :     2.907016
      pz      :     0.985917  p :     3.143670
      px      :     1.078313
      py      :     1.079440
      dz2     :     0.006148  d :     0.087508
      dxz     :     0.011355
      dyz     :     0.006248
      dx2y2   :     0.029438
      dxy     :     0.034318
  4 C s       :     2.906002  s :     2.906002
      pz      :     0.977021  p :     3.136739
      px      :     1.079228
      py      :     1.080490
      dz2     :     0.006145  d :     0.088536
      dxz     :     0.012178
      dyz     :     0.006322
      dx2y2   :     0.029751
      dxy     :     0.034140
  5 C s       :     2.903057  s :     2.903057
      pz      :     0.994073  p :     3.142492
      px      :     1.078935
      py      :     1.069483
      dz2     :     0.006125  d :     0.086220
      dxz     :     0.003298
      dyz     :     0.013944
      dx2y2   :     0.036286
      dxy     :     0.026567
  6 C s       :     2.855697  s :     2.855697
      pz      :     0.956565  p :     3.055376
      px      :     1.060152
      py      :     1.038658
      dz2     :     0.006321  d :     0.106165
      dxz     :     0.013641
      dyz     :     0.012577
      dx2y2   :     0.036034
      dxy     :     0.037591
  7 C s       :     2.903061  s :     2.903061
      pz      :     0.994067  p :     3.142484
      px      :     1.078933
      py      :     1.069484
      dz2     :     0.006124  d :     0.086219
      dxz     :     0.003297
      dyz     :     0.013944
      dx2y2   :     0.036286
      dxy     :     0.026567
  8 C s       :     2.906003  s :     2.906003
      pz      :     0.977019  p :     3.136744
      px      :     1.079230
      py      :     1.080495
      dz2     :     0.006146  d :     0.088535
      dxz     :     0.012176
      dyz     :     0.006322
      dx2y2   :     0.029750
      dxy     :     0.034142
  9 C s       :     2.907019  s :     2.907019
      pz      :     0.985914  p :     3.143666
      px      :     1.078313
      py      :     1.079439
      dz2     :     0.006148  d :     0.087507
      dxz     :     0.011356
      dyz     :     0.006246
      dx2y2   :     0.029439
      dxy     :     0.034317
 10 C s       :     2.906007  s :     2.906007
      pz      :     0.977006  p :     3.136711
      px      :     1.080950
      py      :     1.078755
      dz2     :     0.006145  d :     0.088534
      dxz     :     0.003437
      dyz     :     0.015063
      dx2y2   :     0.036679
      dxy     :     0.027209
 11 C s       :     2.903049  s :     2.903049
      pz      :     0.994110  p :     3.142532
      px      :     1.069712
      py      :     1.078710
      dz2     :     0.006125  d :     0.086218
      dxz     :     0.011192
      dyz     :     0.006045
      dx2y2   :     0.029739
      dxy     :     0.033117
 12 H s       :     0.864707  s :     0.864707
 13 H s       :     0.862949  s :     0.862949
 14 H s       :     0.863186  s :     0.863186
 15 H s       :     0.862941  s :     0.862941
 16 H s       :     0.864695  s :     0.864695
 17 H s       :     0.864694  s :     0.864694
 18 H s       :     0.862938  s :     0.862938
 19 H s       :     0.863188  s :     0.863188
 20 H s       :     0.862948  s :     0.862948
 21 H s       :     0.864706  s :     0.864706


                      *****************************
                      * MAYER POPULATION ANALYSIS *
                      *****************************

  NA   - Mulliken gross atomic population
  ZA   - Total nuclear charge
  QA   - Mulliken gross atomic charge
  VA   - Mayer's total valence
  BVA  - Mayer's bonded valence
  FA   - Mayer's free valence

  ATOM       NA         ZA         QA         VA         BVA        FA
  0 C      5.9298     6.0000     0.0702     4.0528     4.0528     0.0000
  1 C      6.1885     6.0000    -0.1885     3.9320     3.9320     0.0000
  2 C      6.1669     6.0000    -0.1669     3.9571     3.9571     0.0000
  3 C      6.1551     6.0000    -0.1551     3.9473     3.9473     0.0000
  4 C      6.1668     6.0000    -0.1668     3.9568     3.9568    -0.0000
  5 C      6.1882     6.0000    -0.1882     3.9318     3.9318     0.0000
  6 C      5.9298     6.0000     0.0702     4.0528     4.0528    -0.0000
  7 C      6.1882     6.0000    -0.1882     3.9318     3.9318     0.0000
  8 C      6.1668     6.0000    -0.1668     3.9568     3.9568     0.0000
  9 C      6.1551     6.0000    -0.1551     3.9473     3.9473     0.0000
 10 C      6.1668     6.0000    -0.1668     3.9570     3.9570     0.0000
 11 C      6.1885     6.0000    -0.1885     3.9319     3.9319    -0.0000
 12 H      0.8425     1.0000     0.1575     0.9372     0.9372    -0.0000
 13 H      0.8394     1.0000     0.1606     0.9366     0.9366     0.0000
 14 H      0.8408     1.0000     0.1592     0.9365     0.9365     0.0000
 15 H      0.8394     1.0000     0.1606     0.9366     0.9366    -0.0000
 16 H      0.8426     1.0000     0.1574     0.9372     0.9372     0.0000
 17 H      0.8426     1.0000     0.1574     0.9372     0.9372    -0.0000
 18 H      0.8394     1.0000     0.1606     0.9366     0.9366     0.0000
 19 H      0.8408     1.0000     0.1592     0.9365     0.9365     0.0000
 20 H      0.8394     1.0000     0.1606     0.9366     0.9366    -0.0000
 21 H      0.8425     1.0000     0.1575     0.9372     0.9372    -0.0000

  Mayer bond orders larger than 0.100000
B(  0-C ,  1-C ) :   1.4298 B(  0-C ,  5-C ) :   1.4299 B(  0-C ,  6-C ) :   1.0504 
B(  1-C ,  2-C ) :   1.4504 B(  1-C , 12-H ) :   0.9161 B(  2-C ,  3-C ) :   1.4542 
B(  2-C , 13-H ) :   0.9346 B(  3-C ,  4-C ) :   1.4542 B(  3-C , 14-H ) :   0.9355 
B(  4-C ,  5-C ) :   1.4503 B(  4-C , 15-H ) :   0.9346 B(  5-C , 16-H ) :   0.9161 
B(  6-C ,  7-C ) :   1.4300 B(  6-C , 11-C ) :   1.4298 B(  7-C ,  8-C ) :   1.4503 
B(  7-C , 17-H ) :   0.9161 B(  8-C ,  9-C ) :   1.4542 B(  8-C , 18-H ) :   0.9346 
B(  9-C , 10-C ) :   1.4542 B(  9-C , 19-H ) :   0.9355 B( 10-C , 11-C ) :   1.4504 
B( 10-C , 20-H ) :   0.9346 B( 11-C , 21-H ) :   0.9161 

-------
TIMINGS
-------

Total SCF time: 0 days 0 hours 2 min 2 sec 

Total time                  ....     122.783 sec
Sum of individual times     ....     122.527 sec  ( 99.8%)

Fock matrix formation       ....     117.240 sec  ( 95.5%)
  XC integration            ....      14.917 sec  ( 12.7% of F)
    Basis function eval.    ....       4.779 sec  ( 32.0% of XC)
    Density eval.           ....       2.556 sec  ( 17.1% of XC)
    XC-Functional eval.     ....       4.488 sec  ( 30.1% of XC)
    XC-Potential eval.      ....       2.677 sec  ( 17.9% of XC)
Diagonalization             ....       0.031 sec  (  0.0%)
Density matrix formation    ....       0.006 sec  (  0.0%)
Population analysis         ....       0.004 sec  (  0.0%)
Initial guess               ....       1.159 sec  (  0.9%)
Orbital Transformation      ....       0.000 sec  (  0.0%)
Orbital Orthonormalization  ....       0.000 sec  (  0.0%)
DIIS solution               ....       0.000 sec  (  0.0%)
Grid generation             ....       4.086 sec  (  3.3%)

-------------------------   --------------------
FINAL SINGLE POINT ENERGY      -463.161689948581
-------------------------   --------------------

Storing actual gbw-file in biphenyl-twist.001.gbw ... done

                            ***************************************
                            *     ORCA property calculations      *
                            ***************************************

                                    ---------------------
                                    Active property flags
                                    ---------------------
   (+) Dipole Moment


------------------------------------------------------------------------------
                       ORCA ELECTRIC PROPERTIES CALCULATION
------------------------------------------------------------------------------

Dipole Moment Calculation                       ... on
Quadrupole Moment Calculation                   ... off
Polarizability Calculation                      ... off
GBWName                                         ... biphenyl-twist.gbw
Electron density file                           ... biphenyl-twist.scfp
The origin for moment calculation is the CENTER OF MASS  = (-0.708939, -1.195616  0.002530)

-------------
DIPOLE MOMENT
-------------
                                X             Y             Z
Electronic contribution:     -0.00015       0.00007      -0.00016
Nuclear contribution   :      0.00015      -0.00008       0.00027
                        -----------------------------------------
Total Dipole Moment    :      0.00001      -0.00001       0.00010
                        -----------------------------------------
Magnitude (a.u.)       :      0.00010
Magnitude (Debye)      :      0.00027



--------------------
Rotational spectrum 
--------------------
 
Rotational constants in cm-1:     0.096559     0.018984     0.015865 
Rotational constants in MHz :  2894.774944   569.120379   475.615163 

 Dipole components along the rotational axes: 
x,y,z [a.u.] :    -0.000001     0.000009     0.000104 
x,y,z [Debye]:    -0.000002     0.000024     0.000265 

 

         *************************************************************
                                TRAJECTORY STEP   2
                 P1  :  15.00000000
         *************************************************************
---------------------------------
CARTESIAN COORDINATES (ANGSTROEM)
---------------------------------
  C      0.000000    0.000000    0.000000
  C      1.392910    0.000000    0.000000
  C      2.097269    1.189673    0.000000
  C      1.422475    2.398897   -0.004344
  C      0.037759    2.410886   -0.006721
  C     -0.668193    1.222177   -0.002402
  C     -0.750413   -1.265321    0.002809
  C     -0.117250   -2.465932    0.315594
  C     -0.822409   -3.655132    0.315228
  C     -2.172434   -3.664489    0.007118
  C     -2.812771   -2.476487   -0.303101
  C     -2.108090   -1.287002   -0.307688
  H      1.925245   -0.939965    0.020888
  H      3.177692    1.173939    0.005254
  H      1.973367    3.327946   -0.005843
  H     -0.494353    3.351310   -0.013647
  H     -1.748340    1.238298   -0.021737
  H      0.939701   -2.467724    0.539701
  H     -0.316609   -4.579325    0.555186
  H     -2.723237   -4.593590    0.009078
  H     -3.866805   -2.477012   -0.540967
  H     -2.617325   -0.361310   -0.533747

----------------------------
CARTESIAN COORDINATES (A.U.)
----------------------------
  NO LB      ZA    FRAG     MASS         X           Y           Z
   0 C     6.0000    0    12.011    0.000000    0.000000    0.000000
   1 C     6.0000    0    12.011    2.632218    0.000000    0.000000
   2 C     6.0000    0    12.011    3.963264    2.248157    0.000000
   3 C     6.0000    0    12.011    2.688087    4.533258   -0.008209
   4 C     6.0000    0    12.011    0.071353    4.555915   -0.012701
   5 C     6.0000    0    12.011   -1.262703    2.309580   -0.004539
   6 C     6.0000    0    12.011   -1.418076   -2.391110    0.005309
   7 C     6.0000    0    12.011   -0.221570   -4.659937    0.596387
   8 C     6.0000    0    12.011   -1.554127   -6.907198    0.595695
   9 C     6.0000    0    12.011   -4.105306   -6.924881    0.013451
  10 C     6.0000    0    12.011   -5.315368   -4.679883   -0.572777
  11 C     6.0000    0    12.011   -3.983712   -2.432082   -0.581446
  12 H     1.0000    0     1.008    3.638186   -1.776276    0.039472
  13 H     1.0000    0     1.008    6.004967    2.218423    0.009928
  14 H     1.0000    0     1.008    3.729123    6.288906   -0.011041
  15 H     1.0000    0     1.008   -0.934192    6.333059   -0.025788
  16 H     1.0000    0     1.008   -3.303884    2.340043   -0.041077
  17 H     1.0000    0     1.008    1.775777   -4.663323    1.019886
  18 H     1.0000    0     1.008   -0.598305   -8.653669    1.049149
  19 H     1.0000    0     1.008   -5.146172   -8.680627    0.017156
  20 H     1.0000    0     1.008   -7.307202   -4.680874   -1.022279
  21 H     1.0000    0     1.008   -4.946028   -0.682778   -1.008636

--------------------------------
INTERNAL COORDINATES (ANGSTROEM)
--------------------------------
 C      0   0   0     0.000000000000     0.00000000     0.00000000
 C      1   0   0     1.392910000000     0.00000000     0.00000000
 C      2   1   0     1.382550000000   120.62811000     0.00000000
 C      3   2   1     1.384770000000   120.20849000   359.79201000
 C      4   3   2     1.384770000000   119.65945000     0.09384000
 C      5   4   3     1.382540000000   120.20864000     0.11352000
 C      1   2   3     1.471110000000   120.67050000   180.12721000
 C      7   1   2     1.392910000000   120.65895000    15.00000000
 C      8   7   1     1.382550000000   120.63028000   180.14100000
 C      9   8   7     1.384770000000   120.20638000   359.77332000
 C     10   9   8     1.384780000000   119.66024000     0.11073000
 C     11  10   9     1.382560000000   120.20856000     0.11187000
 H      2   1   3     1.080440000000   119.51834000   178.72699000
 H      3   2   1     1.080550000000   119.79335000   179.67899000
 H      4   3   2     1.080100000000   120.17046000   180.09210000
 H      5   4   3     1.080550000000   119.99816000   180.21642000
 H      6   5   4     1.080440000000   119.84111000   181.06684000
 H      8   7   1     1.080450000000   119.51700000   358.83423000
 H      9   8   7     1.080530000000   119.79426000   179.69915000
 H     10   9   8     1.080100000000   120.17010000   180.13148000
 H     11  10   9     1.080540000000   119.99775000   180.21436000
 H     12  11  10     1.080430000000   119.84090000   181.06359000

---------------------------
INTERNAL COORDINATES (A.U.)
---------------------------
 C      0   0   0     0.000000000000     0.00000000     0.00000000
 C      1   0   0     2.632218429200     0.00000000     0.00000000
 C      2   1   0     2.612640866453   120.62811000     0.00000000
 C      3   2   1     2.616836058470   120.20849000   359.79201000
 C      4   3   2     2.616836058470   119.65945000     0.09384000
 C      5   4   3     2.612621969191   120.20864000     0.11352000
 C      1   2   3     2.779995012873   120.67050000   180.12721000
 C      7   1   2     2.632218429200   120.65895000    15.00000000
 C      8   7   1     2.612640866453   120.63028000   180.14100000
 C      9   8   7     2.616836058470   120.20638000   359.77332000
 C     10   9   8     2.616854955731   119.66024000     0.11073000
 C     11  10   9     2.612659763714   120.20856000     0.11187000
 H      2   1   3     2.041735704134   119.51834000   178.72699000
 H      3   2   1     2.041943574009   119.79335000   179.67899000
 H      4   3   2     2.041093197248   120.17046000   180.09210000
 H      5   4   3     2.041943574009   119.99816000   180.21642000
 H      6   5   4     2.041735704134   119.84111000   181.06684000
 H      8   7   1     2.041754601395   119.51700000   358.83423000
 H      9   8   7     2.041905779486   119.79426000   179.69915000
 H     10   9   8     2.041093197248   120.17010000   180.13148000
 H     11  10   9     2.041924676747   119.99775000   180.21436000
 H     12  11  10     2.041716806873   119.84090000   181.06359000


Diagonalization of the overlap matrix:
Smallest eigenvalue                        ... 3.893e-04
Time for diagonalization                   ...    0.005 sec
Threshold for overlap eigenvalues          ... 1.000e-08
Number of eigenvalues below threshold      ... 0
Time for construction of square roots      ...    0.001 sec
Total time needed                          ...    0.007 sec

-------------------
DFT GRID GENERATION
-------------------

General Integration Accuracy     IntAcc      ...  4.670
Radial Grid Type                 RadialGrid  ... Gauss-Chebyshev
Angular Grid (max. acc.)         AngularGrid ... Lebedev-302
Angular grid pruning method      GridPruning ... 3 (G Style)
Weight generation scheme         WeightScheme... Becke
Basis function cutoff            BFCut       ...    1.0000e-10
Integration weight cutoff        WCut        ...    1.0000e-14
Grids for H and He will be reduced by one unit

# of grid points (after initial pruning)     ... 108484 (   0.0 sec)
# of grid points (after weights+screening)   ...  97246 (   0.3 sec)
nearest neighbour list constructed           ...    0.0 sec
Grid point re-assignment to atoms done       ...    0.0 sec
Grid point division into batches done        ...    0.3 sec
Reduced shell lists constructed in    0.9 sec

Total number of grid points                  ...    97246
Total number of batches                      ...     1532
Average number of points per batch           ...       63
Average number of grid points per atom       ...     4420
Average number of shells per batch           ...    50.09 (54.45%)
Average number of basis functions per batch  ...   103.82 (55.23%)
Average number of large shells per batch     ...    35.82 (71.50%)
Average number of large basis fcns per batch ...    74.97 (72.21%)
Maximum spatial batch extension              ...  16.71, 19.42, 23.20 au
Average spatial batch extension              ...   2.37,  2.35,  2.75 au

Time for grid setup =    1.305 sec

--------------
SCF ITERATIONS
--------------
ITER       Energy         Delta-E        Max-DP      RMS-DP      [F,P]   Gradient Norm
               ***  Starting incremental Fock matrix formation  ***
                             ****Resetting KDIIS****
                             ****Turning on KDIIS(Cayley)****
  0   -463.0473521347   0.000000000000 0.00905820  0.00023813  0.0337665   0.033800478
  1   -463.0625671984  -0.015215063716 0.02326860  0.00061297  0.0316894   0.031231591
  2   -463.0973355354  -0.034768336995 0.03731217  0.00101468  0.0257851   0.025078727
  3   -463.1385286272  -0.041193091869 0.05376176  0.00153167  0.0156808   0.015015856
  4   -463.1618813134  -0.023352686181 0.00091562  0.00003483  0.0002596   0.000354528
  5   -463.1618880534  -0.000006740001 0.00024781  0.00000907  0.0000996   0.000096971
                          ***Energy convergence achieved***
  6   -463.1618884980  -0.000000444569 0.00008722  0.00000352  0.0000486   0.000042423

            ***Energy convergence in two consecutive cycles with***
                    ***'reasonable' density convergence***
                       *** signaling convergence ***

                    *** KDIIS BlockDiag (92.484 sec) ***

               *****************************************************
               *                     SUCCESS                       *
               *           SCF CONVERGED AFTER   7 CYCLES          *
               *****************************************************

Setting up the final grid:

General Integration Accuracy     IntAcc      ...  5.010
Radial Grid Type                 RadialGrid  ... Gauss-Chebyshev
Angular Grid (max. acc.)         AngularGrid ... Lebedev-434
Angular grid pruning method      GridPruning ... 3 (G Style)
Weight generation scheme         WeightScheme... Becke
Basis function cutoff            BFCut       ...    1.0000e-10
Integration weight cutoff        WCut        ...    1.0000e-14
Grids for H and He will be reduced by one unit

# of grid points (after initial pruning)     ... 195296 (   0.1 sec)
# of grid points (after weights+screening)   ... 174715 (   0.5 sec)
nearest neighbour list constructed           ...    0.0 sec
Grid point re-assignment to atoms done       ...    0.0 sec
Grid point division into batches done        ...    1.1 sec
Reduced shell lists constructed in    2.2 sec

Total number of grid points                  ...   174715
Total number of batches                      ...     2743
Average number of points per batch           ...       63
Average number of grid points per atom       ...     7942
Average number of shells per batch           ...    48.31 (52.51%)
Average number of basis functions per batch  ...    99.88 (53.13%)
Average number of large shells per batch     ...    34.27 (70.95%)
Average number of large basis fcns per batch ...    71.62 (71.70%)
Maximum spatial batch extension              ...  19.54, 17.41, 23.89 au
Average spatial batch extension              ...   1.96,  1.93,  2.16 au

Final grid set up in    2.8 sec
Final integration                            ... done (   2.4 sec)
Change in XC energy                          ...    -0.001408810
Integrated number of electrons               ...    81.999953294
Previous integrated no of electrons          ...    81.999951398
Total Energy       :         -463.16329739 Eh          -12603.31406 eV
  Last Energy change         ...   -8.4453e-08  Tolerance :   1.0000e-06
  Last MAX-Density change    ...    5.7961e-05  Tolerance :   1.0000e-05
             **** THE GBW FILE WAS UPDATED (biphenyl-twist.gbw) ****
             **** DENSITY FILE WAS UPDATED (biphenyl-twist.scfp) ****
             **** ENERGY FILE WAS UPDATED (biphenyl-twist.en.tmp) ****
             **** THE GBW FILE WAS UPDATED (biphenyl-twist.gbw) ****
             **** DENSITY FILE WAS UPDATED (biphenyl-twist.scfp) ****
Total SCF time: 0 days 0 hours 1 min 37 sec 

-------------------------   --------------------
FINAL SINGLE POINT ENERGY      -463.163297392723
-------------------------   --------------------

Storing actual gbw-file in biphenyl-twist.002.gbw ... done

                            ***************************************
                            *     ORCA property calculations      *
                            ***************************************

                                    ---------------------
                                    Active property flags
                                    ---------------------
   (+) Dipole Moment


------------------------------------------------------------------------------
                       ORCA ELECTRIC PROPERTIES CALCULATION
------------------------------------------------------------------------------

Dipole Moment Calculation                       ... on
Quadrupole Moment Calculation                   ... off
Polarizability Calculation                      ... off
GBWName                                         ... biphenyl-twist.gbw
Electron density file                           ... biphenyl-twist.scfp
The origin for moment calculation is the CENTER OF MASS  = (-0.708825, -1.195684  0.002603)

-------------
DIPOLE MOMENT
-------------
                                X             Y             Z
Electronic contribution:     -0.00007       0.00040      -0.00026
Nuclear contribution   :      0.00026      -0.00014       0.00037
                        -----------------------------------------
Total Dipole Moment    :      0.00019       0.00026       0.00011
                        -----------------------------------------
Magnitude (a.u.)       :      0.00034
Magnitude (Debye)      :      0.00086



--------------------
Rotational spectrum 
--------------------
 
Rotational constants in cm-1:     0.096559     0.018922     0.015908 
Rotational constants in MHz :  2894.774939   567.274661   476.911930 

 Dipole components along the rotational axes: 
x,y,z [a.u.] :     0.000321    -0.000045     0.000101 
x,y,z [Debye]:     0.000817    -0.000114     0.000256 

 

         *************************************************************
                                TRAJECTORY STEP   3
                 P1  :  30.00000000
         *************************************************************
---------------------------------
CARTESIAN COORDINATES (ANGSTROEM)
---------------------------------
  C      0.000000    0.000000    0.000000
  C      1.392910    0.000000    0.000000
  C      2.097269    1.189673    0.000000
  C      1.422475    2.398897   -0.004344
  C      0.037759    2.410886   -0.006721
  C     -0.668193    1.222177   -0.002402
  C     -0.750413   -1.265321    0.002809
  C     -0.220207   -2.404231    0.604442
  C     -0.924699   -3.593826    0.604203
  C     -2.172229   -3.664611    0.007338
  C     -2.710182   -2.537970   -0.591747
  C     -2.005047   -1.348754   -0.596437
  H      1.925245   -0.939965    0.020888
  H      3.177692    1.173939    0.005254
  H      1.973367    3.327946   -0.005843
  H     -0.494353    3.351310   -0.013647
  H     -1.748340    1.238298   -0.021737
  H      0.760178   -2.360109    1.056406
  H     -0.498435   -4.470346    1.070632
  H     -2.723014   -4.593722    0.009349
  H     -3.684692   -2.586159   -1.056046
  H     -2.437734   -0.468966   -1.050404

----------------------------
CARTESIAN COORDINATES (A.U.)
----------------------------
  NO LB      ZA    FRAG     MASS         X           Y           Z
   0 C     6.0000    0    12.011    0.000000    0.000000    0.000000
   1 C     6.0000    0    12.011    2.632218    0.000000    0.000000
   2 C     6.0000    0    12.011    3.963264    2.248157    0.000000
   3 C     6.0000    0    12.011    2.688087    4.533258   -0.008209
   4 C     6.0000    0    12.011    0.071353    4.555915   -0.012701
   5 C     6.0000    0    12.011   -1.262703    2.309580   -0.004539
   6 C     6.0000    0    12.011   -1.418076   -2.391110    0.005309
   7 C     6.0000    0    12.011   -0.416131   -4.543338    1.142231
   8 C     6.0000    0    12.011   -1.747428   -6.791346    1.141779
   9 C     6.0000    0    12.011   -4.104917   -6.925110    0.013868
  10 C     6.0000    0    12.011   -5.121501   -4.796069   -1.118240
  11 C     6.0000    0    12.011   -3.788991   -2.548775   -1.127102
  12 H     1.0000    0     1.008    3.638186   -1.776276    0.039472
  13 H     1.0000    0     1.008    6.004967    2.218423    0.009928
  14 H     1.0000    0     1.008    3.729123    6.288906   -0.011041
  15 H     1.0000    0     1.008   -0.934192    6.333059   -0.025788
  16 H     1.0000    0     1.008   -3.303884    2.340043   -0.041077
  17 H     1.0000    0     1.008    1.436528   -4.459959    1.996318
  18 H     1.0000    0     1.008   -0.941906   -8.447730    2.023202
  19 H     1.0000    0     1.008   -5.145750   -8.680876    0.017668
  20 H     1.0000    0     1.008   -6.963059   -4.887132   -1.995638
  21 H     1.0000    0     1.008   -4.606649   -0.886218   -1.984976

--------------------------------
INTERNAL COORDINATES (ANGSTROEM)
--------------------------------
 C      0   0   0     0.000000000000     0.00000000     0.00000000
 C      1   0   0     1.392910000000     0.00000000     0.00000000
 C      2   1   0     1.382550000000   120.62811000     0.00000000
 C      3   2   1     1.384770000000   120.20849000   359.79201000
 C      4   3   2     1.384770000000   119.65945000     0.09384000
 C      5   4   3     1.382540000000   120.20864000     0.11352000
 C      1   2   3     1.471110000000   120.67050000   180.12721000
 C      7   1   2     1.392910000000   120.65895000    30.00000000
 C      8   7   1     1.382550000000   120.63028000   180.14100000
 C      9   8   7     1.384770000000   120.20638000   359.77332000
 C     10   9   8     1.384780000000   119.66024000     0.11073000
 C     11  10   9     1.382560000000   120.20856000     0.11187000
 H      2   1   3     1.080440000000   119.51834000   178.72699000
 H      3   2   1     1.080550000000   119.79335000   179.67899000
 H      4   3   2     1.080100000000   120.17046000   180.09210000
 H      5   4   3     1.080550000000   119.99816000   180.21642000
 H      6   5   4     1.080440000000   119.84111000   181.06684000
 H      8   7   1     1.080450000000   119.51700000   358.83423000
 H      9   8   7     1.080530000000   119.79426000   179.69915000
 H     10   9   8     1.080100000000   120.17010000   180.13148000
 H     11  10   9     1.080540000000   119.99775000   180.21436000
 H     12  11  10     1.080430000000   119.84090000   181.06359000

---------------------------
INTERNAL COORDINATES (A.U.)
---------------------------
 C      0   0   0     0.000000000000     0.00000000     0.00000000
 C      1   0   0     2.632218429200     0.00000000     0.00000000
 C      2   1   0     2.612640866453   120.62811000     0.00000000
 C      3   2   1     2.616836058470   120.20849000   359.79201000
 C      4   3   2     2.616836058470   119.65945000     0.09384000
 C      5   4   3     2.612621969191   120.20864000     0.11352000
 C      1   2   3     2.779995012873   120.67050000   180.12721000
 C      7   1   2     2.632218429200   120.65895000    30.00000000
 C      8   7   1     2.612640866453   120.63028000   180.14100000
 C      9   8   7     2.616836058470   120.20638000   359.77332000
 C     10   9   8     2.616854955731   119.66024000     0.11073000
 C     11  10   9     2.612659763714   120.20856000     0.11187000
 H      2   1   3     2.041735704134   119.51834000   178.72699000
 H      3   2   1     2.041943574009   119.79335000   179.67899000
 H      4   3   2     2.041093197248   120.17046000   180.09210000
 H      5   4   3     2.041943574009   119.99816000   180.21642000
 H      6   5   4     2.041735704134   119.84111000   181.06684000
 H      8   7   1     2.041754601395   119.51700000   358.83423000
 H      9   8   7     2.041905779486   119.79426000   179.69915000
 H     10   9   8     2.041093197248   120.17010000   180.13148000
 H     11  10   9     2.041924676747   119.99775000   180.21436000
 H     12  11  10     2.041716806873   119.84090000   181.06359000


Diagonalization of the overlap matrix:
Smallest eigenvalue                        ... 4.280e-04
Time for diagonalization                   ...    0.005 sec
Threshold for overlap eigenvalues          ... 1.000e-08
Number of eigenvalues below threshold      ... 0
Time for construction of square roots      ...    0.001 sec
Total time needed                          ...    0.006 sec

-------------------
DFT GRID GENERATION
-------------------

General Integration Accuracy     IntAcc      ...  4.670
Radial Grid Type                 RadialGrid  ... Gauss-Chebyshev
Angular Grid (max. acc.)         AngularGrid ... Lebedev-302
Angular grid pruning method      GridPruning ... 3 (G Style)
Weight generation scheme         WeightScheme... Becke
Basis function cutoff            BFCut       ...    1.0000e-10
Integration weight cutoff        WCut        ...    1.0000e-14
Grids for H and He will be reduced by one unit

# of grid points (after initial pruning)     ... 108484 (   0.0 sec)
# of grid points (after weights+screening)   ...  97356 (   0.3 sec)
nearest neighbour list constructed           ...    0.0 sec
Grid point re-assignment to atoms done       ...    0.0 sec
Grid point division into batches done        ...    0.3 sec
Reduced shell lists constructed in    0.9 sec

Total number of grid points                  ...    97356
Total number of batches                      ...     1531
Average number of points per batch           ...       63
Average number of grid points per atom       ...     4425
Average number of shells per batch           ...    50.00 (54.35%)
Average number of basis functions per batch  ...   103.63 (55.12%)
Average number of large shells per batch     ...    35.64 (71.27%)
Average number of large basis fcns per batch ...    74.63 (72.02%)
Maximum spatial batch extension              ...  17.03, 19.41, 21.92 au
Average spatial batch extension              ...   2.41,  2.39,  2.62 au

Time for grid setup =    1.308 sec

--------------
SCF ITERATIONS
--------------
ITER       Energy         Delta-E        Max-DP      RMS-DP      [F,P]   Gradient Norm
               ***  Starting incremental Fock matrix formation  ***
                             ****Resetting KDIIS****
                             ****Turning on KDIIS(Cayley)****
  0   -463.0508488499   0.000000000000 0.00725547  0.00022455  0.0322314   0.033755217
  1   -463.0659834524  -0.015134602559 0.01864077  0.00058951  0.0302761   0.031189369
  2   -463.1006393867  -0.034655934229 0.02849170  0.00098086  0.0245691   0.025031008
  3   -463.1416211927  -0.040981806070 0.04115432  0.00147800  0.0149886   0.014983847
  4   -463.1647641577  -0.023142964938 0.00092577  0.00003290  0.0002583   0.000368299
  5   -463.1647713187  -0.000007161068 0.00030621  0.00001197  0.0001347   0.000098745
                          ***Energy convergence achieved***
  6   -463.1647718256  -0.000000506844 0.00011310  0.00000412  0.0000659   0.000054509

            ***Energy convergence in two consecutive cycles with***
                    ***'reasonable' density convergence***
                       *** signaling convergence ***

                    *** KDIIS BlockDiag (93.189 sec) ***

               *****************************************************
               *                     SUCCESS                       *
               *           SCF CONVERGED AFTER   7 CYCLES          *
               *****************************************************

Setting up the final grid:

General Integration Accuracy     IntAcc      ...  5.010
Radial Grid Type                 RadialGrid  ... Gauss-Chebyshev
Angular Grid (max. acc.)         AngularGrid ... Lebedev-434
Angular grid pruning method      GridPruning ... 3 (G Style)
Weight generation scheme         WeightScheme... Becke
Basis function cutoff            BFCut       ...    1.0000e-10
Integration weight cutoff        WCut        ...    1.0000e-14
Grids for H and He will be reduced by one unit

# of grid points (after initial pruning)     ... 195296 (   0.1 sec)
# of grid points (after weights+screening)   ... 174898 (   0.5 sec)
nearest neighbour list constructed           ...    0.0 sec
Grid point re-assignment to atoms done       ...    0.0 sec
Grid point division into batches done        ...    1.1 sec
Reduced shell lists constructed in    2.2 sec

Total number of grid points                  ...   174898
Total number of batches                      ...     2742
Average number of points per batch           ...       63
Average number of grid points per atom       ...     7950
Average number of shells per batch           ...    48.33 (52.54%)
Average number of basis functions per batch  ...    99.97 (53.18%)
Average number of large shells per batch     ...    34.16 (70.68%)
Average number of large basis fcns per batch ...    71.41 (71.43%)
Maximum spatial batch extension              ...  19.57, 17.41, 25.38 au
Average spatial batch extension              ...   1.98,  1.95,  2.11 au

Final grid set up in    2.8 sec
Final integration                            ... done (   2.4 sec)
Change in XC energy                          ...    -0.001425303
Integrated number of electrons               ...    81.999980835
Previous integrated no of electrons          ...    81.999732129
Total Energy       :         -463.16619726 Eh          -12603.39297 eV
  Last Energy change         ...   -1.3627e-07  Tolerance :   1.0000e-06
  Last MAX-Density change    ...    6.4491e-05  Tolerance :   1.0000e-05
             **** THE GBW FILE WAS UPDATED (biphenyl-twist.gbw) ****
             **** DENSITY FILE WAS UPDATED (biphenyl-twist.scfp) ****
             **** ENERGY FILE WAS UPDATED (biphenyl-twist.en.tmp) ****
             **** THE GBW FILE WAS UPDATED (biphenyl-twist.gbw) ****
             **** DENSITY FILE WAS UPDATED (biphenyl-twist.scfp) ****
Total SCF time: 0 days 0 hours 1 min 38 sec 

-------------------------   --------------------
FINAL SINGLE POINT ENERGY      -463.166197264785
-------------------------   --------------------

Storing actual gbw-file in biphenyl-twist.003.gbw ... done

                            ***************************************
                            *     ORCA property calculations      *
                            ***************************************

                                    ---------------------
                                    Active property flags
                                    ---------------------
   (+) Dipole Moment


------------------------------------------------------------------------------
                       ORCA ELECTRIC PROPERTIES CALCULATION
------------------------------------------------------------------------------

Dipole Moment Calculation                       ... on
Quadrupole Moment Calculation                   ... off
Polarizability Calculation                      ... off
GBWName                                         ... biphenyl-twist.gbw
Electron density file                           ... biphenyl-twist.scfp
The origin for moment calculation is the CENTER OF MASS  = (-0.708731, -1.195739  0.002707)

-------------
DIPOLE MOMENT
-------------
                                X             Y             Z
Electronic contribution:     -0.00024       0.00038      -0.00041
Nuclear contribution   :      0.00033      -0.00018       0.00050
                        -----------------------------------------
Total Dipole Moment    :      0.00009       0.00020       0.00009
[...]
Grid point re-assignment to atoms done       ...    0.0 sec
Grid point division into batches done        ...    1.1 sec
Reduced shell lists constructed in    2.2 sec

Total number of grid points                  ...   174713
Total number of batches                      ...     2742
Average number of points per batch           ...       63
Average number of grid points per atom       ...     7942
Average number of shells per batch           ...    48.31 (52.51%)
Average number of basis functions per batch  ...    99.91 (53.14%)
Average number of large shells per batch     ...    34.29 (70.99%)
Average number of large basis fcns per batch ...    71.65 (71.71%)
Maximum spatial batch extension              ...  19.49, 20.82, 22.41 au
Average spatial batch extension              ...   1.95,  1.93,  2.13 au

Final grid set up in    2.8 sec
Final integration                            ... done (   2.4 sec)
Change in XC energy                          ...    -0.001410790
Integrated number of electrons               ...    81.999951653
Previous integrated no of electrons          ...    81.999946942
Total Energy       :         -463.16380580 Eh          -12603.32790 eV
  Last Energy change         ...   -1.1919e-07  Tolerance :   1.0000e-06
  Last MAX-Density change    ...    5.5583e-05  Tolerance :   1.0000e-05
             **** THE GBW FILE WAS UPDATED (biphenyl-twist.gbw) ****
             **** DENSITY FILE WAS UPDATED (biphenyl-twist.scfp) ****
             **** ENERGY FILE WAS UPDATED (biphenyl-twist.en.tmp) ****
             **** THE GBW FILE WAS UPDATED (biphenyl-twist.gbw) ****
             **** DENSITY FILE WAS UPDATED (biphenyl-twist.scfp) ****
Total SCF time: 0 days 0 hours 1 min 37 sec 

-------------------------   --------------------
FINAL SINGLE POINT ENERGY      -463.163805801542
-------------------------   --------------------

Storing actual gbw-file in biphenyl-twist.024.gbw ... done

                            ***************************************
                            *     ORCA property calculations      *
                            ***************************************

                                    ---------------------
                                    Active property flags
                                    ---------------------
   (+) Dipole Moment


------------------------------------------------------------------------------
                       ORCA ELECTRIC PROPERTIES CALCULATION
------------------------------------------------------------------------------

Dipole Moment Calculation                       ... on
Quadrupole Moment Calculation                   ... off
Polarizability Calculation                      ... off
GBWName                                         ... biphenyl-twist.gbw
Electron density file                           ... biphenyl-twist.scfp
The origin for moment calculation is the CENTER OF MASS  = (-0.709065, -1.195541  0.002495)

-------------
DIPOLE MOMENT
-------------
                                X             Y             Z
Electronic contribution:      0.00014       0.00013      -0.00009
Nuclear contribution   :      0.00003      -0.00001       0.00020
                        -----------------------------------------
Total Dipole Moment    :      0.00017       0.00012       0.00011
                        -----------------------------------------
Magnitude (a.u.)       :      0.00024
Magnitude (Debye)      :      0.00061



--------------------
Rotational spectrum 
--------------------
 
Rotational constants in cm-1:     0.096559     0.018919     0.015911 
Rotational constants in MHz :  2894.774943   567.166338   476.988517 

 Dipole components along the rotational axes: 
x,y,z [a.u.] :     0.000194    -0.000070     0.000119 
x,y,z [Debye]:     0.000494    -0.000178     0.000304 

 

         *************************************************************
                                TRAJECTORY STEP  25
                 P1  : 360.00000000
         *************************************************************
---------------------------------
CARTESIAN COORDINATES (ANGSTROEM)
---------------------------------
  C      0.000000    0.000000    0.000000
  C      1.392910    0.000000    0.000000
  C      2.097269    1.189673    0.000000
  C      1.422475    2.398897   -0.004344
  C      0.037759    2.410886   -0.006721
  C     -0.668193    1.222177   -0.002402
  C     -0.750413   -1.265321    0.002809
  C     -0.082133   -2.487447    0.005523
  C     -0.787964   -3.676248    0.005235
  C     -2.172682   -3.664343    0.006967
  C     -2.847578   -2.455157    0.006665
  C     -2.143311   -1.265426    0.002313
  H      1.925245   -0.939965    0.020888
  H      3.177692    1.173939    0.005254
  H      1.973367    3.327946   -0.005843
  H     -0.494353    3.351310   -0.013647
  H     -1.748340    1.238298   -0.021737
  H      0.998028   -2.503544   -0.013570
  H     -0.255778   -4.616628    0.002437
  H     -2.723512   -4.593427    0.008884
  H     -3.927994   -2.439496    0.011512
  H     -2.675730   -0.325445    0.019497

----------------------------
CARTESIAN COORDINATES (A.U.)
----------------------------
  NO LB      ZA    FRAG     MASS         X           Y           Z
   0 C     6.0000    0    12.011    0.000000    0.000000    0.000000
   1 C     6.0000    0    12.011    2.632218    0.000000    0.000000
   2 C     6.0000    0    12.011    3.963264    2.248157    0.000000
   3 C     6.0000    0    12.011    2.688087    4.533258   -0.008209
   4 C     6.0000    0    12.011    0.071353    4.555915   -0.012701
   5 C     6.0000    0    12.011   -1.262703    2.309580   -0.004539
   6 C     6.0000    0    12.011   -1.418076   -2.391110    0.005309
   7 C     6.0000    0    12.011   -0.155210   -4.700594    0.010436
   8 C     6.0000    0    12.011   -1.489036   -6.947102    0.009892
   9 C     6.0000    0    12.011   -4.105774   -6.924604    0.013166
  10 C     6.0000    0    12.011   -5.381143   -4.639574    0.012596
  11 C     6.0000    0    12.011   -4.050270   -2.391308    0.004370
  12 H     1.0000    0     1.008    3.638186   -1.776276    0.039472
  13 H     1.0000    0     1.008    6.004967    2.218423    0.009928
  14 H     1.0000    0     1.008    3.729123    6.288906   -0.011041
  15 H     1.0000    0     1.008   -0.934192    6.333059   -0.025788
  16 H     1.0000    0     1.008   -3.303884    2.340043   -0.041077
  17 H     1.0000    0     1.008    1.886000   -4.731013   -0.025644
  18 H     1.0000    0     1.008   -0.483351   -8.724163    0.004606
  19 H     1.0000    0     1.008   -5.146693   -8.680319    0.016787
  20 H     1.0000    0     1.008   -7.422833   -4.609979    0.021755
  21 H     1.0000    0     1.008   -5.056396   -0.615001    0.036845

--------------------------------
INTERNAL COORDINATES (ANGSTROEM)
--------------------------------
 C      0   0   0     0.000000000000     0.00000000     0.00000000
 C      1   0   0     1.392910000000     0.00000000     0.00000000
 C      2   1   0     1.382550000000   120.62811000     0.00000000
 C      3   2   1     1.384770000000   120.20849000   359.79201000
 C      4   3   2     1.384770000000   119.65945000     0.09384000
 C      5   4   3     1.382540000000   120.20864000     0.11352000
 C      1   2   3     1.471110000000   120.67050000   180.12721000
 C      7   1   2     1.392910000000   120.65895000   360.00000000
 C      8   7   1     1.382550000000   120.63028000   180.14100000
 C      9   8   7     1.384770000000   120.20638000   359.77332000
 C     10   9   8     1.384780000000   119.66024000     0.11073000
 C     11  10   9     1.382560000000   120.20856000     0.11187000
 H      2   1   3     1.080440000000   119.51834000   178.72699000
 H      3   2   1     1.080550000000   119.79335000   179.67899000
 H      4   3   2     1.080100000000   120.17046000   180.09210000
 H      5   4   3     1.080550000000   119.99816000   180.21642000
 H      6   5   4     1.080440000000   119.84111000   181.06684000
 H      8   7   1     1.080450000000   119.51700000   358.83423000
 H      9   8   7     1.080530000000   119.79426000   179.69915000
 H     10   9   8     1.080100000000   120.17010000   180.13148000
 H     11  10   9     1.080540000000   119.99775000   180.21436000
 H     12  11  10     1.080430000000   119.84090000   181.06359000

---------------------------
INTERNAL COORDINATES (A.U.)
---------------------------
 C      0   0   0     0.000000000000     0.00000000     0.00000000
 C      1   0   0     2.632218429200     0.00000000     0.00000000
 C      2   1   0     2.612640866453   120.62811000     0.00000000
 C      3   2   1     2.616836058470   120.20849000   359.79201000
 C      4   3   2     2.616836058470   119.65945000     0.09384000
 C      5   4   3     2.612621969191   120.20864000     0.11352000
 C      1   2   3     2.779995012873   120.67050000   180.12721000
 C      7   1   2     2.632218429200   120.65895000   360.00000000
 C      8   7   1     2.612640866453   120.63028000   180.14100000
 C      9   8   7     2.616836058470   120.20638000   359.77332000
 C     10   9   8     2.616854955731   119.66024000     0.11073000
 C     11  10   9     2.612659763714   120.20856000     0.11187000
 H      2   1   3     2.041735704134   119.51834000   178.72699000
 H      3   2   1     2.041943574009   119.79335000   179.67899000
 H      4   3   2     2.041093197248   120.17046000   180.09210000
 H      5   4   3     2.041943574009   119.99816000   180.21642000
 H      6   5   4     2.041735704134   119.84111000   181.06684000
 H      8   7   1     2.041754601395   119.51700000   358.83423000
 H      9   8   7     2.041905779486   119.79426000   179.69915000
 H     10   9   8     2.041093197248   120.17010000   180.13148000
 H     11  10   9     2.041924676747   119.99775000   180.21436000
 H     12  11  10     2.041716806873   119.84090000   181.06359000


Diagonalization of the overlap matrix:
Smallest eigenvalue                        ... 3.661e-04
Time for diagonalization                   ...    0.005 sec
Threshold for overlap eigenvalues          ... 1.000e-08
Number of eigenvalues below threshold      ... 0
Time for construction of square roots      ...    0.001 sec
Total time needed                          ...    0.006 sec

-------------------
DFT GRID GENERATION
-------------------

General Integration Accuracy     IntAcc      ...  4.670
Radial Grid Type                 RadialGrid  ... Gauss-Chebyshev
Angular Grid (max. acc.)         AngularGrid ... Lebedev-302
Angular grid pruning method      GridPruning ... 3 (G Style)
Weight generation scheme         WeightScheme... Becke
Basis function cutoff            BFCut       ...    1.0000e-10
Integration weight cutoff        WCut        ...    1.0000e-14
Grids for H and He will be reduced by one unit

# of grid points (after initial pruning)     ... 108484 (   0.0 sec)
# of grid points (after weights+screening)   ...  97217 (   0.3 sec)
nearest neighbour list constructed           ...    0.0 sec
Grid point re-assignment to atoms done       ...    0.0 sec
Grid point division into batches done        ...    0.3 sec
Reduced shell lists constructed in    0.9 sec

Total number of grid points                  ...    97217
Total number of batches                      ...     1532
Average number of points per batch           ...       63
Average number of grid points per atom       ...     4419
Average number of shells per batch           ...    50.08 (54.44%)
Average number of basis functions per batch  ...   103.79 (55.21%)
Average number of large shells per batch     ...    35.84 (71.55%)
Average number of large basis fcns per batch ...    75.04 (72.30%)
Maximum spatial batch extension              ...  16.59, 17.73, 23.20 au
Average spatial batch extension              ...   2.30,  2.30,  2.76 au

Time for grid setup =    1.299 sec

--------------
SCF ITERATIONS
--------------
ITER       Energy         Delta-E        Max-DP      RMS-DP      [F,P]   Gradient Norm
               ***  Starting incremental Fock matrix formation  ***
                             ****Resetting KDIIS****
                             ****Turning on KDIIS(Cayley)****
  0   -463.0457271866   0.000000000000 0.00890998  0.00024380  0.0336459   0.033822795
  1   -463.0609385317  -0.015211345120 0.02271309  0.00060226  0.0315642   0.031251022
  2   -463.0956361247  -0.034697592994 0.03795813  0.00099863  0.0257732   0.025109946
  3   -463.1368688109  -0.041232686136 0.05732918  0.00150936  0.0156386   0.015030883
  4   -463.1602702870  -0.023401476167 0.00081121  0.00003144  0.0003314   0.000388191
  5   -463.1602774237  -0.000007136702 0.00031436  0.00001384  0.0001410   0.000135553
                          ***Energy convergence achieved***
  6   -463.1602783400  -0.000000916270 0.00010481  0.00000434  0.0000558   0.000051142

            ***Energy convergence in two consecutive cycles with***
                    ***'reasonable' density convergence***
                       *** signaling convergence ***

                    *** KDIIS BlockDiag (92.593 sec) ***

               *****************************************************
               *                     SUCCESS                       *
               *           SCF CONVERGED AFTER   7 CYCLES          *
               *****************************************************

Setting up the final grid:

General Integration Accuracy     IntAcc      ...  5.010
Radial Grid Type                 RadialGrid  ... Gauss-Chebyshev
Angular Grid (max. acc.)         AngularGrid ... Lebedev-434
Angular grid pruning method      GridPruning ... 3 (G Style)
Weight generation scheme         WeightScheme... Becke
Basis function cutoff            BFCut       ...    1.0000e-10
Integration weight cutoff        WCut        ...    1.0000e-14
Grids for H and He will be reduced by one unit

# of grid points (after initial pruning)     ... 195296 (   0.1 sec)
# of grid points (after weights+screening)   ... 174576 (   0.5 sec)
nearest neighbour list constructed           ...    0.0 sec
Grid point re-assignment to atoms done       ...    0.0 sec
Grid point division into batches done        ...    1.1 sec
Reduced shell lists constructed in    2.2 sec

Total number of grid points                  ...   174576
Total number of batches                      ...     2739
Average number of points per batch           ...       63
Average number of grid points per atom       ...     7935
Average number of shells per batch           ...    48.32 (52.52%)
Average number of basis functions per batch  ...    99.92 (53.15%)
Average number of large shells per batch     ...    34.32 (71.02%)
Average number of large basis fcns per batch ...    71.69 (71.75%)
Maximum spatial batch extension              ...  18.05, 20.82, 24.07 au
Average spatial batch extension              ...   1.92,  1.90,  2.17 au

Final grid set up in    2.8 sec
Final integration                            ... done (   2.4 sec)
Change in XC energy                          ...    -0.001411540
Integrated number of electrons               ...    82.000014404
Previous integrated no of electrons          ...    81.999790816
Total Energy       :         -463.16169001 Eh          -12603.27032 eV
  Last Energy change         ...   -1.2841e-07  Tolerance :   1.0000e-06
  Last MAX-Density change    ...    5.8083e-05  Tolerance :   1.0000e-05
             **** THE GBW FILE WAS UPDATED (biphenyl-twist.gbw) ****
             **** DENSITY FILE WAS UPDATED (biphenyl-twist.scfp) ****
             **** ENERGY FILE WAS UPDATED (biphenyl-twist.en.tmp) ****
             **** THE GBW FILE WAS UPDATED (biphenyl-twist.gbw) ****
             **** DENSITY FILE WAS UPDATED (biphenyl-twist.scfp) ****
Total SCF time: 0 days 0 hours 1 min 37 sec 

-------------------------   --------------------
FINAL SINGLE POINT ENERGY      -463.161690008854
-------------------------   --------------------

Storing actual gbw-file in biphenyl-twist.025.gbw ... done

                            ***************************************
                            *     ORCA property calculations      *
                            ***************************************

                                    ---------------------
                                    Active property flags
                                    ---------------------
   (+) Dipole Moment


------------------------------------------------------------------------------
                       ORCA ELECTRIC PROPERTIES CALCULATION
------------------------------------------------------------------------------

Dipole Moment Calculation                       ... on
Quadrupole Moment Calculation                   ... off
Polarizability Calculation                      ... off
GBWName                                         ... biphenyl-twist.gbw
Electron density file                           ... biphenyl-twist.scfp
The origin for moment calculation is the CENTER OF MASS  = (-0.708939, -1.195616  0.002530)

-------------
DIPOLE MOMENT
-------------
                                X             Y             Z
Electronic contribution:     -0.00001       0.00031      -0.00016
Nuclear contribution   :      0.00015      -0.00008       0.00027
                        -----------------------------------------
Total Dipole Moment    :      0.00015       0.00023       0.00010
                        -----------------------------------------
Magnitude (a.u.)       :      0.00029
Magnitude (Debye)      :      0.00075



--------------------
Rotational spectrum 
--------------------
 
Rotational constants in cm-1:     0.096559     0.018984     0.015865 
Rotational constants in MHz :  2894.774944   569.120379   475.615163 

 Dipole components along the rotational axes: 
x,y,z [a.u.] :     0.000274     0.000009     0.000104 
x,y,z [Debye]:     0.000696     0.000022     0.000265 

 
                              **** TRAJECTORY DONE ***

                         SUMMARY OF THE CALCULATED SURFACE

------------------
TRAJECTORY RESULTS
------------------

Column   1: P1

The Calculated Surface using the 'Actual Energy'
   0.00000000 -463.16168995
  15.00000000 -463.16329739
  30.00000000 -463.16619726
  45.00000000 -463.16705430
  60.00000000 -463.16588349
  75.00000000 -463.16430512
  90.00000000 -463.16362772
 105.00000000 -463.16435963
 120.00000000 -463.16602681
 135.00000000 -463.16734447
 150.00000000 -463.16668957
 165.00000000 -463.16380587
 180.00000000 -463.16168998
 195.00000000 -463.16329741
 210.00000000 -463.16619722
 225.00000000 -463.16705432
 240.00000000 -463.16588326
 255.00000000 -463.16430487
 270.00000000 -463.16362753
 285.00000000 -463.16435956
 300.00000000 -463.16602698
 315.00000000 -463.16734448
 330.00000000 -463.16668943
 345.00000000 -463.16380580
 360.00000000 -463.16169001

The Calculated Surface using the SCF energy
   0.00000000 -463.16168995
  15.00000000 -463.16329739
  30.00000000 -463.16619726
  45.00000000 -463.16705430
  60.00000000 -463.16588349
  75.00000000 -463.16430512
  90.00000000 -463.16362772
 105.00000000 -463.16435963
 120.00000000 -463.16602681
 135.00000000 -463.16734447
 150.00000000 -463.16668957
 165.00000000 -463.16380587
 180.00000000 -463.16168998
 195.00000000 -463.16329741
 210.00000000 -463.16619722
 225.00000000 -463.16705432
 240.00000000 -463.16588326
 255.00000000 -463.16430487
 270.00000000 -463.16362753
 285.00000000 -463.16435956
 300.00000000 -463.16602698
 315.00000000 -463.16734448
 330.00000000 -463.16668943
 345.00000000 -463.16380580
 360.00000000 -463.16169001


Timings for individual modules:

Sum of individual times         ...     2463.422 sec (=  41.057 min)
GTO integral calculation        ...        7.606 sec (=   0.127 min)   0.3 %
SCF iterations                  ...     2455.816 sec (=  40.930 min)  99.7 %
                             ****ORCA TERMINATED NORMALLY****
TOTAL RUN TIME: 0 days 0 hours 41 minutes 5 seconds 894 msec
