
                                 *****************
                                 * O   R   C   A *
                                 *****************

           --- An Ab Initio, DFT and Semiempirical electronic structure package ---

                  #######################################################
                  #                        -***-                        #
                  #          Department of theory and spectroscopy      #
                  #               Directorship: Frank Neese             #
                  #        Max Planck Institute fuer Kohlenforschung    #
                  #                Kaiser Wilhelm Platz 1               #
                  #                 D-45470 Muelheim/Ruhr               #
                  #                      Germany                        #
                  #                                                     #
                  #                  All rights reserved                #
                  #                        -***-                        #
                  #######################################################


                         Program Version 4.2.0 -  RELEASE  -


 With contributions from (in alphabetic order):
   Daniel Aravena         : Magnetic Suceptibility
   Michael Atanasov       : Ab Initio Ligand Field Theory (pilot matlab implementation)
   Alexander A. Auer      : GIAO ZORA, VPT2
   Ute Becker             : Parallelization
   Giovanni Bistoni       : ED, misc. LED, open-shell LED, HFLED
   Martin Brehm           : Molecular dynamics
   Dmytro Bykov           : SCF Hessian
   Vijay G. Chilkuri      : MRCI spin determinant printing, contributions to CSF-ICE
   Dipayan Datta          : RHF DLPNO-CCSD density
   Achintya Kumar Dutta   : EOM-CC, STEOM-CC
   Dmitry Ganyushin       : Spin-Orbit,Spin-Spin,Magnetic field MRCI
   Miquel Garcia          : C-PCM Hessian, Gaussian charge scheme
   Yang Guo               : DLPNO-NEVPT2, CIM, IAO-localization
   Andreas Hansen         : Spin unrestricted coupled pair/coupled cluster methods
   Benjamin Helmich-Paris : CASSCF linear response (MC-RPA)
   Lee Huntington         : MR-EOM, pCC
   Robert Izsak           : Overlap fitted RIJCOSX, COSX-SCS-MP3, EOM
   Christian Kollmar      : KDIIS, OOCD, Brueckner-CCSD(T), CCSD density
   Simone Kossmann        : Meta GGA functionals, TD-DFT gradient, OOMP2, MP2 Hessian
   Martin Krupicka        : AUTO-CI
   Lucas Lang             : DCDCAS
   Dagmar Lenk            : GEPOL surface, SMD
   Dimitrios Liakos       : Extrapolation schemes; Compound Job, initial MDCI parallelization
   Dimitrios Manganas     : Further ROCIS development; embedding schemes
   Dimitrios Pantazis     : SARC Basis sets
   Taras Petrenko         : DFT Hessian,TD-DFT gradient, ASA, ECA, R-Raman, ABS, FL, XAS/XES, NRVS
   Peter Pinski           : DLPNO-MP2, DLPNO-MP2 Gradient
   Christoph Reimann      : Effective Core Potentials
   Marius Retegan         : Local ZFS, SOC
   Christoph Riplinger    : Optimizer, TS searches, QM/MM, DLPNO-CCSD(T), (RO)-DLPNO pert. Triples
   Tobias Risthaus        : Range-separated hybrids, TD-DFT gradient, RPA, STAB
   Michael Roemelt        : Original ROCIS implementation
   Masaaki Saitow         : Open-shell DLPNO-CCSD energy and density
   Barbara Sandhoefer     : DKH picture change effects
   Avijit Sen             : IP-ROCIS
   Kantharuban Sivalingam : CASSCF convergence, NEVPT2, FIC-MRCI
   Bernardo de Souza      : ESD, SOC TD-DFT
   Georgi Stoychev        : AutoAux, RI-MP2 NMR
   Willem Van den Heuvel  : Paramagnetic NMR
   Boris Wezisla          : Elementary symmetry handling
   Frank Wennmohs         : Technical directorship


 We gratefully acknowledge several colleagues who have allowed us to
 interface, adapt or use parts of their codes:
   Stefan Grimme, W. Hujo, H. Kruse,             : VdW corrections, initial TS optimization,
                  C. Bannwarth                     DFT functionals, gCP, sTDA/sTD-DF
   Ed Valeev, F. Pavosevic, A. Kumar             : LibInt (2-el integral package), F12 methods
   Garnet Chan, S. Sharma, J. Yang, R. Olivares  : DMRG
   Ulf Ekstrom                                   : XCFun DFT Library
   Mihaly Kallay                                 : mrcc  (arbitrary order and MRCC methods)
   Andreas Klamt, Michael Diedenhofen            : otool_cosmo (COSMO solvation model)
   Jiri Pittner, Ondrej Demel                    : Mk-CCSD
   Frank Weinhold                                : gennbo (NPA and NBO analysis)
   Christopher J. Cramer and Donald G. Truhlar   : smd solvation model
   Lars Goerigk                                  : TD-DFT with DH, B97 family of functionals
   V. Asgeirsson, H. Jonsson                     : NEB implementation
   FAccTs GmbH                                   : IRC, NEB, NEB-TS, Multilevel, MM, QM/MM, CI optimization
   S Lehtola, MJT Oliveira, MAL Marques          : LibXC Library


 Your calculation uses the libint2 library for the computation of 2-el integrals
 For citations please refer to: http://libint.valeyev.net

 Your ORCA version has been built with support for libXC version: 4.2.3
 For citations please refer to: https://tddft.org/programs/libxc/

 This ORCA versions uses:
   CBLAS   interface :  Fast vector & matrix operations
   LAPACKE interface :  Fast linear algebra routines
   SCALAPACK package :  Parallel linear algebra routines


XCFun DFT library Copyright 2009-2010 Ulf Ekstrom and contributors.
See http://admol.org/xcfun for more information. This is free soft-
ware; see the source code for copying conditions. There is ABSOLUTELY
NO WARRANTY; not even for MERCHANTABILITY or FITNESS FOR A PARTICULAR
PURPOSE. For details see the documentation. Scientific users of this 
library should cite U. Ekstrom, L. Visscher, R. Bast, A. J. Thorvald-
sen and K. Ruud; J.Chem.Theor.Comp. 2010, DOI: 10.1021/ct100117s
XCFun Version 0.99 
----- Orbital basis set information -----
Your calculation utilizes the basis: 6-31G(d)
   H-He, Li-Ne : W. J. Hehre, R. Ditchfield and J.A. Pople, J. Chem. Phys. 56, 2257 (1972).
                 Note: He and Ne are unpublished basis sets taken from the Gaussian program.
                 Note: Li and B from J. D. Dill and J. A. Pople, J. Chem. Phys. 62, 2921 (1975).
   Na - Ar     : M. M. Francl, W. J. Pietro, W. J. Hehre, J. S. Binkley, M. S. Gordon, 
                 D. J. DeFrees and J. A. Pople, J. Chem. Phys. 77, 3654 (1982).
   K - Zn      : V. A. Rassolov, J. A. Pople, M. A. Ratner, and T. L. Windus, J. Chem. Phys. 109, 1223 (1998).

================================================================================
                                        WARNINGS
                       Please study these warnings very carefully!
================================================================================


WARNING: Geometry Optimization
  ===> : Switching off AutoStart
         For restart on a previous wavefunction, please use MOREAD

INFO   : the flag for use of LIBINT has been found!

================================================================================
                                       INPUT FILE
================================================================================
NAME = gly-gly.inp
|  1> # ORCA input file
|  2> # energy: -30.691430556625 gnorm: 0.000986795653 xtb: 6.2.3 (conda-forge)
|  3> ! RKS wB97x 6-31g(d) TightSCF Grid4 Opt
|  4> * xyz 0 1
|  5>    N       -4.85644        -1.10810         0.12616
|  6>    C       -3.40438        -1.03400         0.18975
|  7>    C       -2.94331        -0.50952         1.53914
|  8>    O       -1.82205        -0.04663         1.71501
|  9>    H       -2.99768        -2.04602         0.09088
| 10>    H       -2.93648        -0.41483        -0.58978
| 11>    H       -5.25169        -0.18064         0.00531
| 12>    H       -5.14996        -1.67019        -0.66422
| 13>    N       -3.85322        -0.62351         2.51243
| 14>    C       -3.66597        -0.09293         3.84857
| 15>    C       -2.64084        -0.89379         4.68432
| 16>    O       -2.94016        -1.41390         5.72122
| 17>    H       -3.29213         0.93689         3.77643
| 18>    H       -4.62154        -0.09700         4.37156
| 19>    H       -4.73070        -1.05776         2.26033
| 20>    O       -1.42297        -0.93047         4.17962
| 21>    H       -1.36509        -0.48606         3.28989
| 22> *
| 23> 
| 24>                          ****END OF INPUT****
================================================================================

                       *****************************
                       * Geometry Optimization Run *
                       *****************************

Geometry optimization settings:
Update method            Update   .... BFGS
Choice of coordinates    CoordSys .... Z-matrix Internals
Initial Hessian          InHess   .... Almoef's Model

Convergence Tolerances:
Energy Change            TolE     ....  5.0000e-06 Eh
Max. Gradient            TolMAXG  ....  3.0000e-04 Eh/bohr
RMS Gradient             TolRMSG  ....  1.0000e-04 Eh/bohr
Max. Displacement        TolMAXD  ....  4.0000e-03 bohr
RMS Displacement         TolRMSD  ....  2.0000e-03 bohr
Strict Convergence                ....  False
------------------------------------------------------------------------------
                        ORCA OPTIMIZATION COORDINATE SETUP
------------------------------------------------------------------------------

The optimization will be done in new redundant internal coordinates
Making redundant internal coordinates   ...  (new redundants) done
Evaluating the initial hessian          ...  (Almloef) done
Evaluating the coordinates              ...  done
Calculating the B-matrix                .... done
Calculating the G-matrix                .... done
Diagonalizing the G-matrix              .... done
Small eigenvalue found = 1.906e-02
Small eigenvalue found = 2.977e-02
The first mode is                       ....   26
The number of degrees of freedom        ....   45

    -----------------------------------------------------------------
                    Redundant Internal Coordinates


    -----------------------------------------------------------------
         Definition                    Initial Value    Approx d2E/dq
    -----------------------------------------------------------------
      1. B(C   1,N   0)                  1.4553         0.440180   
      2. B(C   2,C   1)                  1.5194         0.388436   
      3. B(O   3,C   2)                  1.2257         1.023182   
      4. B(H   4,C   1)                  1.0952         0.353345   
      5. B(H   5,C   1)                  1.1000         0.347129   
      6. B(H   6,N   0)                  1.0154         0.424230   
      7. B(H   7,N   0)                  1.0133         0.427476   
      8. B(N   8,C   2)                  1.3372         0.679271   
      9. B(C   9,N   8)                  1.4498         0.449271   
     10. B(C  10,C   9)                  1.5462         0.351986   
     11. B(O  11,C  10)                  1.1980         1.132808   
     12. B(H  12,C   9)                  1.0979         0.349738   
     13. B(H  13,C   9)                  1.0893         0.360982   
     14. B(H  14,N   8)                  1.0110         0.431139   
     15. B(O  15,C  10)                  1.3188         0.726851   
     16. B(H  16,O  15)                  0.9962         0.455164   
     17. A(C   1,N   0,H   7)          110.5691         0.337865   
     18. A(C   1,N   0,H   6)          110.3086         0.337436   
     19. A(H   6,N   0,H   7)          107.5226         0.301713   
     20. A(C   2,C   1,H   5)          107.8182         0.324443   
     21. A(N   0,C   1,H   4)          108.6345         0.330176   
     22. A(C   2,C   1,H   4)          106.6470         0.325390   
     23. A(H   4,C   1,H   5)          107.3504         0.288314   
     24. A(N   0,C   1,H   5)          114.9676         0.329209   
     25. A(N   0,C   1,C   2)          111.0484         0.373892   
     26. A(C   1,C   2,N   8)          114.2357         0.403286   
     27. A(O   3,C   2,N   8)          123.3808         0.477099   
     28. A(C   1,C   2,O   3)          122.3699         0.433821   
     29. A(C   2,N   8,C   9)          123.4840         0.411136   
     30. A(C   9,N   8,H  14)          119.9413         0.339503   
     31. A(C   2,N   8,H  14)          116.4682         0.364073   
     32. A(N   8,C   9,C  10)          113.2177         0.368901   
     33. A(H  12,C   9,H  13)          109.4952         0.289621   
     34. A(C  10,C   9,H  13)          108.6719         0.321298   
     35. A(N   8,C   9,H  13)          109.1356         0.332470   
     36. A(C  10,C   9,H  12)          107.1925         0.319640   
     37. A(N   8,C   9,H  12)          109.0679         0.330732   
     38. A(C   9,C  10,O  11)          121.8056         0.434074   
     39. A(O  11,C  10,O  15)          123.3580         0.492276   
     40. A(C   9,C  10,O  15)          114.8222         0.401101   
     41. A(C  10,O  15,H  16)          112.5213         0.371770   
     42. D(C   2,C   1,N   0,H   6)     75.7040         0.016522   
     43. D(H   5,C   1,N   0,H   6)    -47.0382         0.016522   
     44. D(H   4,C   1,N   0,H   6)   -167.3142         0.016522   
     45. D(C   2,C   1,N   0,H   7)   -165.4945         0.016522   
     46. D(H   5,C   1,N   0,H   7)     71.7633         0.016522   
     47. D(H   4,C   1,N   0,H   7)    -48.5127         0.016522   
     48. D(O   3,C   2,C   1,N   0)   -161.1360         0.011230   
     49. D(N   8,C   2,C   1,H   5)    146.9436         0.011230   
     50. D(N   8,C   2,C   1,N   0)     20.1622         0.011230   
     51. D(N   8,C   2,C   1,H   4)    -98.0293         0.011230   
     52. D(O   3,C   2,C   1,H   4)     80.6725         0.011230   
     53. D(O   3,C   2,C   1,H   5)    -34.3547         0.011230   
     54. D(H  14,N   8,C   2,C   1)      1.3018         0.037959   
     55. D(C   9,N   8,C   2,O   3)      6.3773         0.037959   
     56. D(C   9,N   8,C   2,C   1)   -174.9358         0.037959   
     57. D(H  14,N   8,C   2,O   3)   -177.3851         0.037959   
     58. D(H  13,C   9,N   8,H  14)     -9.7376         0.017218   
     59. D(H  13,C   9,N   8,C   2)    166.3755         0.017218   
     60. D(H  12,C   9,N   8,H  14)   -129.3209         0.017218   
     61. D(H  12,C   9,N   8,C   2)     46.7922         0.017218   
     62. D(C  10,C   9,N   8,H  14)    111.4321         0.017218   
     63. D(C  10,C   9,N   8,C   2)    -72.4548         0.017218   
     64. D(O  15,C  10,C   9,H  13)   -177.9401         0.009352   
     65. D(O  15,C  10,C   9,H  12)    -59.6910         0.009352   
     66. D(O  15,C  10,C   9,N   8)     60.6290         0.009352   
     67. D(O  11,C  10,C   9,H  13)      0.7309         0.009352   
     68. D(O  11,C  10,C   9,H  12)    118.9800         0.009352   
     69. D(O  11,C  10,C   9,N   8)   -120.7000         0.009352   
     70. D(H  16,O  15,C  10,O  11)    177.0792         0.039860   
     71. D(H  16,O  15,C  10,C   9)     -4.2730         0.039860   
    -----------------------------------------------------------------

Number of atoms                         .... 17
Number of degrees of freedom            .... 71

         *************************************************************
         *                GEOMETRY OPTIMIZATION CYCLE   1            *
         *************************************************************
---------------------------------
CARTESIAN COORDINATES (ANGSTROEM)
---------------------------------
  N     -4.856440   -1.108100    0.126160
  C     -3.404380   -1.034000    0.189750
  C     -2.943310   -0.509520    1.539140
  O     -1.822050   -0.046630    1.715010
  H     -2.997680   -2.046020    0.090880
  H     -2.936480   -0.414830   -0.589780
  H     -5.251690   -0.180640    0.005310
  H     -5.149960   -1.670190   -0.664220
  N     -3.853220   -0.623510    2.512430
  C     -3.665970   -0.092930    3.848570
  C     -2.640840   -0.893790    4.684320
  O     -2.940160   -1.413900    5.721220
  H     -3.292130    0.936890    3.776430
  H     -4.621540   -0.097000    4.371560
  H     -4.730700   -1.057760    2.260330
  O     -1.422970   -0.930470    4.179620
  H     -1.365090   -0.486060    3.289890

----------------------------
CARTESIAN COORDINATES (A.U.)
----------------------------
  NO LB      ZA    FRAG     MASS         X           Y           Z
   0 N     7.0000    0    14.007   -9.177342   -2.094006    0.238408
   1 C     6.0000    0    12.011   -6.433346   -1.953977    0.358576
   2 C     6.0000    0    12.011   -5.562050   -0.962853    2.908553
   3 O     8.0000    0    15.999   -3.443176   -0.088118    3.240899
   4 H     1.0000    0     1.008   -5.664794   -3.866417    0.171738
   5 H     1.0000    0     1.008   -5.549143   -0.783915   -1.114523
   6 H     1.0000    0     1.008   -9.924256   -0.341360    0.010034
   7 H     1.0000    0     1.008   -9.732014   -3.156202   -1.255194
   8 N     7.0000    0    14.007   -7.281531   -1.178263    4.747805
   9 C     6.0000    0    12.011   -6.927679   -0.175612    7.272743
  10 C     6.0000    0    12.011   -4.990464   -1.689018    8.852082
  11 O     8.0000    0    15.999   -5.556097   -2.671884   10.811539
  12 H     1.0000    0     1.008   -6.221224    1.770466    7.136418
  13 H     1.0000    0     1.008   -8.733445   -0.183303    8.261051
  14 H     1.0000    0     1.008   -8.939727   -1.998877    4.271405
  15 O     8.0000    0    15.999   -2.689024   -1.758333    7.898337
  16 H     1.0000    0     1.008   -2.579646   -0.918520    6.216991

--------------------------------
INTERNAL COORDINATES (ANGSTROEM)
--------------------------------
 N      0   0   0     0.000000000000     0.00000000     0.00000000
 C      1   0   0     1.455339390555     0.00000000     0.00000000
 C      2   1   0     1.519380856599   111.04842534     0.00000000
 O      3   2   1     1.225733003798   122.36988080   198.86400001
 H      2   1   3     1.095155079110   108.63453891   116.98175224
 H      2   1   3     1.099985872546   114.96759987   237.25778665
 H      1   2   3     1.015386299198   110.30863949    75.70401758
 H      1   2   3     1.013311256673   110.56907106   194.50552740
 N      3   2   1     1.337244686772   114.23571570    20.16220895
 C      9   3   2     1.449775085487   123.48397445   185.06416712
 C     10   9   3     1.546203841348   113.21766731   287.54520267
 O     11  10   9     1.198026913095   121.80556481   239.29999653
 H     10   9   3     1.097947975817   109.06785999    46.79224788
 H     10   9   3     1.089334259950   109.13555838   166.37547898
 H      9   3   2     1.010988933124   116.46823291     1.30184549
 O     11  10   9     1.318815699520   114.82224321    60.62896727
 H     16  11  10     0.996227792927   112.52128807   355.72700159

---------------------------
INTERNAL COORDINATES (A.U.)
---------------------------
 N      0   0   0     0.000000000000     0.00000000     0.00000000
 C      1   0   0     2.750192880056     0.00000000     0.00000000
 C      2   1   0     2.871213712095   111.04842534     0.00000000
 O      3   2   1     2.316299690487   122.36988080   198.86400001
 H      2   1   3     2.069543173690   108.63453891   116.98175224
 H      2   1   3     2.078672050294   114.96759987   237.25778665
 H      1   2   3     1.918802025621   110.30863949    75.70401758
 H      1   2   3     1.914880763531   110.56907106   194.50552740
 N      3   2   1     2.527026232040   114.23571570    20.16220895
 C      9   3   2     2.739677867353   123.48397445   185.06416712
 C     10   9   3     2.921901807365   113.21766731   287.54520267
 O     11  10   9     2.263942766817   121.80556481   239.29999653
 H     10   9   3     2.074820983587   109.06785999    46.79224788
 H     10   9   3     2.058543419603   109.13555838   166.37547898
 H      9   3   2     1.910492208030   116.46823291     1.30184549
 O     11  10   9     2.492200493208   114.82224321    60.62896727
 H     16  11  10     1.882597695633   112.52128807   355.72700159

---------------------
BASIS SET INFORMATION
---------------------
There are 4 groups of distinct atoms

 Group   1 Type N   : 10s4p1d contracted to 3s2p1d pattern {631/31/1}
 Group   2 Type C   : 10s4p1d contracted to 3s2p1d pattern {631/31/1}
 Group   3 Type O   : 10s4p1d contracted to 3s2p1d pattern {631/31/1}
 Group   4 Type H   : 4s contracted to 2s pattern {31}

Atom   0N    basis set group =>   1
Atom   1C    basis set group =>   2
Atom   2C    basis set group =>   2
Atom   3O    basis set group =>   3
Atom   4H    basis set group =>   4
Atom   5H    basis set group =>   4
Atom   6H    basis set group =>   4
Atom   7H    basis set group =>   4
Atom   8N    basis set group =>   1
Atom   9C    basis set group =>   2
Atom  10C    basis set group =>   2
Atom  11O    basis set group =>   3
Atom  12H    basis set group =>   4
Atom  13H    basis set group =>   4
Atom  14H    basis set group =>   4
Atom  15O    basis set group =>   3
Atom  16H    basis set group =>   4
------------------------------------------------------------------------------
                           ORCA GTO INTEGRAL CALCULATION
------------------------------------------------------------------------------

                         BASIS SET STATISTICS AND STARTUP INFO

 # of primitive gaussian shells          ...  167
 # of primitive gaussian functions       ...  275
 # of contracted shells                  ...   70
 # of contracted basis functions         ...  142
 Highest angular momentum                ...    2
 Maximum contraction depth               ...    6
 Integral package used                   ... LIBINT
 Integral threshhold            Thresh   ...  2.500e-11
 Primitive cut-off              TCut     ...  2.500e-12


------------------------------ INTEGRAL EVALUATION ----------------------------


 * One electron integrals 
 Pre-screening matrix                    ... done
 Shell pair data                         ... done (   0.001 sec)

-------------------------------------------------------------------------------
                                 ORCA SCF
-------------------------------------------------------------------------------

------------
SCF SETTINGS
------------
Hamiltonian:
 Density Functional     Method          .... DFT(GTOs)
 Exchange Functional    Exchange        .... WB97X
 Correlation Functional Correlation     .... WB97X
 Gradients option       PostSCFGGA      .... off
 Hybrid DFT is turned on
   Fraction HF Exchange ScalHFX         ....  0.157706
   Scaling of DF-GGA-X  ScalDFX         ....  0.000000
   Scaling of DF-GGA-C  ScalDFC         ....  1.000000
   Scaling of DF-LDA-C  ScalLDAC        ....  1.000000
   Perturbative correction              ....  0.000000
   Density functional embedding theory  .... OFF
 Long-range corrected/Screened/Range-Separated Hybrid DFT is turned on
   Amount of maximum screened exact exchange              ....  0.842294
   Range separation parameter mu (erf(mu*r12)/r12)        ....  0.300000


General Settings:
 Integral files         IntName         .... gly-gly
 Hartree-Fock type      HFTyp           .... RHF
 Total Charge           Charge          ....    0
 Multiplicity           Mult            ....    1
 Number of Electrons    NEL             ....   70
 Basis Dimension        Dim             ....  142
 Nuclear Repulsion      ENuc            ....    469.1447893890 Eh

Convergence Acceleration:
 DIIS                   CNVDIIS         .... on
   Start iteration      DIISMaxIt       ....    12
   Startup error        DIISStart       ....  0.200000
   # of expansion vecs  DIISMaxEq       ....     5
   Bias factor          DIISBfac        ....   1.050
   Max. coefficient     DIISMaxC        ....  10.000
 Newton-Raphson         CNVNR           .... off
 SOSCF                  CNVSOSCF        .... on
   Start iteration      SOSCFMaxIt      ....   150
   Startup grad/error   SOSCFStart      ....  0.003300
 Level Shifting         CNVShift        .... on
   Level shift para.    LevelShift      ....    0.2500
   Turn off err/grad.   ShiftErr        ....    0.0010
 Zerner damping         CNVZerner       .... off
 Static damping         CNVDamp         .... on
   Fraction old density DampFac         ....    0.7000
   Max. Damping (<1)    DampMax         ....    0.9800
   Min. Damping (>=0)   DampMin         ....    0.0000
   Turn off err/grad.   DampErr         ....    0.1000
 Fernandez-Rico         CNVRico         .... off

SCF Procedure:
 Maximum # iterations   MaxIter         ....   125
 SCF integral mode      SCFMode         .... Direct
   Integral package                     .... LIBINT
 Reset frequency        DirectResetFreq ....    20
 Integral Threshold     Thresh          ....  2.500e-11 Eh
 Primitive CutOff       TCut            ....  2.500e-12 Eh

Convergence Tolerance:
 Convergence Check Mode ConvCheckMode   .... Total+1el-Energy
 Convergence forced     ConvForced      .... 0
 Energy Change          TolE            ....  1.000e-08 Eh
 1-El. energy change                    ....  1.000e-05 Eh
 Orbital Gradient       TolG            ....  1.000e-05
 Orbital Rotation angle TolX            ....  1.000e-05
 DIIS Error             TolErr          ....  5.000e-07


Diagonalization of the overlap matrix:
Smallest eigenvalue                        ... 3.519e-03
Time for diagonalization                   ...    0.064 sec
Threshold for overlap eigenvalues          ... 1.000e-08
Number of eigenvalues below threshold      ... 0
Time for construction of square roots      ...    0.001 sec
Total time needed                          ...    0.065 sec

-------------------
DFT GRID GENERATION
-------------------

General Integration Accuracy     IntAcc      ...  4.670
Radial Grid Type                 RadialGrid  ... Gauss-Chebyshev
Angular Grid (max. acc.)         AngularGrid ... Lebedev-302
Angular grid pruning method      GridPruning ... 3 (G Style)
Weight generation scheme         WeightScheme... Becke
Basis function cutoff            BFCut       ...    1.0000e-11
Integration weight cutoff        WCut        ...    1.0000e-14
Grids for H and He will be reduced by one unit

# of grid points (after initial pruning)     ...  83060 (   0.0 sec)
# of grid points (after weights+screening)   ...  75950 (   0.2 sec)
nearest neighbour list constructed           ...    0.0 sec
Grid point re-assignment to atoms done       ...    0.0 sec
Grid point division into batches done        ...    0.3 sec
Reduced shell lists constructed in    0.6 sec

Total number of grid points                  ...    75950
Total number of batches                      ...     1197
Average number of points per batch           ...       63
Average number of grid points per atom       ...     4468
Average number of shells per batch           ...    43.45 (62.07%)
Average number of basis functions per batch  ...    89.56 (63.07%)
Average number of large shells per batch     ...    32.44 (74.67%)
Average number of large basis fcns per batch ...    66.84 (74.64%)
Maximum spatial batch extension              ...  20.11, 23.13, 20.07 au
Average spatial batch extension              ...   2.49,  2.58,  2.41 au

Time for grid setup =    0.838 sec

------------------------------
INITIAL GUESS: MODEL POTENTIAL
------------------------------
Loading Hartree-Fock densities                     ... done
Calculating cut-offs                               ... done
Setting up the integral package                    ... done
Initializing the effective Hamiltonian             ... done
Starting the Coulomb interaction                   ... done (   0.1 sec)
Reading the grid                                   ... done
Mapping shells                                     ... done
Starting the XC term evaluation                    ... done (   0.5 sec)
  promolecular density results
     # of electrons  =     69.996014251
     EX              =    -60.399544370
     EC              =     -2.357127182
     EX+EC           =    -62.756671552
Transforming the Hamiltonian                       ... done (   0.0 sec)
Diagonalizing the Hamiltonian                      ... done (   0.0 sec)
Back transforming the eigenvectors                 ... done (   0.0 sec)
Now organizing SCF variables                       ... done
                      ------------------
                      INITIAL GUESS DONE (   1.5 sec)
                      ------------------
--------------
SCF ITERATIONS
--------------
ITER       Energy         Delta-E        Max-DP      RMS-DP      [F,P]     Damp
               ***  Starting incremental Fock matrix formation  ***
  0   -492.0144187865   0.000000000000 0.07554203  0.00246573  0.2493571 0.7000
  1   -492.1438097704  -0.129390983952 0.04717079  0.00166383  0.1244618 0.7000
                               ***Turning on DIIS***
  2   -492.2020952174  -0.058285446984 0.07405670  0.00289580  0.0576502 0.0000
  3   -492.2977721356  -0.095676918219 0.03329380  0.00113392  0.0625481 0.0000
  4   -492.3130739273  -0.015301791644 0.00740792  0.00025405  0.0077346 0.0000
  5   -492.3134973136  -0.000423386294 0.00282629  0.00010269  0.0038982 0.0000
                      *** Initiating the SOSCF procedure ***
                           *** Shutting down DIIS ***
                      *** Re-Reading the Fockian *** 
                      *** Removing any level shift *** 
ITER      Energy       Delta-E        Grad      Rot      Max-DP    RMS-DP
  6   -492.31355363  -0.0000563152  0.000876  0.000876  0.001450  0.000070
               *** Restarting incremental Fock matrix formation ***
  7   -492.31356850  -0.0000148728  0.000275  0.000400  0.000895  0.000036
  8   -492.31356962  -0.0000011172  0.000481  0.000506  0.000496  0.000014
  9   -492.31357203  -0.0000024076  0.000051  0.000158  0.000131  0.000006
 10   -492.31357211  -0.0000000807  0.000019  0.000046  0.000052  0.000002
 11   -492.31357214  -0.0000000330  0.000007  0.000010  0.000022  0.000001
 12   -492.31357214  -0.0000000012  0.000003  0.000002  0.000006  0.000000
                  ***Gradient check signals convergence***
              ***Rediagonalizing the Fockian in SOSCF/NRSCF***

               *****************************************************
               *                     SUCCESS                       *
               *           SCF CONVERGED AFTER  13 CYCLES          *
               *****************************************************

Setting up the final grid:

General Integration Accuracy     IntAcc      ...  5.010
Radial Grid Type                 RadialGrid  ... Gauss-Chebyshev
Angular Grid (max. acc.)         AngularGrid ... Lebedev-434
Angular grid pruning method      GridPruning ... 3 (G Style)
Weight generation scheme         WeightScheme... Becke
Basis function cutoff            BFCut       ...    1.0000e-11
Integration weight cutoff        WCut        ...    1.0000e-14
Grids for H and He will be reduced by one unit

# of grid points (after initial pruning)     ... 150034 (   0.0 sec)
# of grid points (after weights+screening)   ... 136788 (   0.3 sec)
nearest neighbour list constructed           ...    0.0 sec
Grid point re-assignment to atoms done       ...    0.0 sec
Grid point division into batches done        ...    0.9 sec
Reduced shell lists constructed in    1.5 sec

Total number of grid points                  ...   136788
Total number of batches                      ...     2144
Average number of points per batch           ...       63
Average number of grid points per atom       ...     8046
Average number of shells per batch           ...    42.22 (60.32%)
Average number of basis functions per batch  ...    86.87 (61.18%)
Average number of large shells per batch     ...    31.23 (73.95%)
Average number of large basis fcns per batch ...    64.33 (74.05%)
Maximum spatial batch extension              ...  19.14, 23.05, 21.64 au
Average spatial batch extension              ...   2.00,  2.05,  1.96 au

Final grid set up in    1.9 sec
Final integration                            ... done (   1.3 sec)
Change in XC energy                          ...    -0.001429537
Integrated number of electrons               ...    70.000027956
Previous integrated no of electrons          ...    69.999984478

----------------
TOTAL SCF ENERGY
----------------

Total Energy       :         -492.31500168 Eh          -13396.57226 eV

Components:
Nuclear Repulsion  :          469.14478939 Eh           12766.07873 eV
Electronic Energy  :         -961.45979107 Eh          -26162.65100 eV
One Electron Energy:        -1601.90076551 Eh          -43589.93590 eV
Two Electron Energy:          640.44097444 Eh           17427.28490 eV

Virial components:
Potential Energy   :         -981.49586503 Eh          -26707.86029 eV
Kinetic Energy     :          489.18086335 Eh           13311.28802 eV
Virial Ratio       :            2.00640691


DFT components:
N(Alpha)           :       35.000013977980 electrons
N(Beta)            :       35.000013977980 electrons
N(Total)           :       70.000027955960 electrons
E(XC)              :      -45.273694823744 Eh       
DFET-embed. en.    :        0.000000000000 Eh       

---------------
SCF CONVERGENCE
---------------

  Last Energy change         ...    6.9917e-11  Tolerance :   1.0000e-08
  Last MAX-Density change    ...    2.0949e-06  Tolerance :   1.0000e-07
  Last RMS-Density change    ...    7.7251e-08  Tolerance :   5.0000e-09
  Last Orbital Gradient      ...    7.4370e-07  Tolerance :   1.0000e-05
  Last Orbital Rotation      ...    1.7169e-06  Tolerance :   1.0000e-05

             **** THE GBW FILE WAS UPDATED (gly-gly.gbw) ****
             **** DENSITY FILE WAS UPDATED (gly-gly.scfp) ****
             **** ENERGY FILE WAS UPDATED (gly-gly.en.tmp) ****
             **** THE GBW FILE WAS UPDATED (gly-gly.gbw) ****
             **** DENSITY FILE WAS UPDATED (gly-gly.scfp) ****
----------------
ORBITAL ENERGIES
----------------

  NO   OCC          E(Eh)            E(eV) 
   0   2.0000     -19.229155      -523.2519 
   1   2.0000     -19.208919      -522.7013 
   2   2.0000     -19.182337      -521.9779 
   3   2.0000     -14.453066      -393.2879 
   4   2.0000     -14.425023      -392.5248 
   5   2.0000     -10.392430      -282.7924 
   6   2.0000     -10.385578      -282.6060 
   7   2.0000     -10.321050      -280.8501 
   8   2.0000     -10.318892      -280.7913 
   9   2.0000      -1.216514       -33.1030 
  10   2.0000      -1.191565       -32.4241 
  11   2.0000      -1.125679       -30.6313 
  12   2.0000      -1.082457       -29.4552 
  13   2.0000      -1.045346       -28.4453 
  14   2.0000      -0.888590       -24.1798 
  15   2.0000      -0.833076       -22.6691 
  16   2.0000      -0.731779       -19.9127 
  17   2.0000      -0.710105       -19.3229 
  18   2.0000      -0.670259       -18.2387 
  19   2.0000      -0.652060       -17.7435 
  20   2.0000      -0.620924       -16.8962 
  21   2.0000      -0.614119       -16.7110 
  22   2.0000      -0.578391       -15.7388 
  23   2.0000      -0.562277       -15.3003 
  24   2.0000      -0.549737       -14.9591 
  25   2.0000      -0.535999       -14.5853 
  26   2.0000      -0.525781       -14.3072 
  27   2.0000      -0.508798       -13.8451 
  28   2.0000      -0.493065       -13.4170 
  29   2.0000      -0.469734       -12.7821 
  30   2.0000      -0.403299       -10.9743 
  31   2.0000      -0.398143       -10.8340 
  32   2.0000      -0.391048       -10.6410 
  33   2.0000      -0.372363       -10.1325 
  34   2.0000      -0.346184        -9.4202 
  35   0.0000       0.092471         2.5163 
  36   0.0000       0.124444         3.3863 
  37   0.0000       0.155505         4.2315 
  38   0.0000       0.190638         5.1875 
  39   0.0000       0.212850         5.7919 
  40   0.0000       0.217043         5.9061 
  41   0.0000       0.232802         6.3349 
  42   0.0000       0.263056         7.1581 
  43   0.0000       0.267877         7.2893 
  44   0.0000       0.284723         7.7477 
  45   0.0000       0.288079         7.8390 
  46   0.0000       0.312765         8.5108 
  47   0.0000       0.330915         9.0046 
  48   0.0000       0.357007         9.7146 
  49   0.0000       0.412062        11.2128 
  50   0.0000       0.458682        12.4814 
  51   0.0000       0.483046        13.1443 
  52   0.0000       0.523208        14.2372 
  53   0.0000       0.613669        16.6988 
  54   0.0000       0.614649        16.7254 
  55   0.0000       0.636011        17.3067 
  56   0.0000       0.645033        17.5522 
  57   0.0000       0.657433        17.8897 
  58   0.0000       0.685975        18.6663 
  59   0.0000       0.701124        19.0786 
  60   0.0000       0.712037        19.3755 
  61   0.0000       0.750231        20.4148 
  62   0.0000       0.767155        20.8753 
  63   0.0000       0.791232        21.5305 
  64   0.0000       0.798686        21.7334 
  65   0.0000       0.823250        22.4018 
  66   0.0000       0.840018        22.8580 
  67   0.0000       0.887237        24.1429 
  68   0.0000       0.894428        24.3386 
  69   0.0000       0.929781        25.3006 
  70   0.0000       0.939847        25.5745 
  71   0.0000       0.965103        26.2618 
  72   0.0000       0.967649        26.3311 
  73   0.0000       0.980101        26.6699 
  74   0.0000       0.997454        27.1421 
  75   0.0000       1.019695        27.7473 
  76   0.0000       1.029322        28.0093 
  77   0.0000       1.033136        28.1130 
  78   0.0000       1.044151        28.4128 
  79   0.0000       1.050694        28.5908 
  80   0.0000       1.099893        29.9296 
  81   0.0000       1.143667        31.1208 
  82   0.0000       1.156554        31.4714 
  83   0.0000       1.181850        32.1598 
  84   0.0000       1.191918        32.4337 
  85   0.0000       1.222482        33.2654 
  86   0.0000       1.245730        33.8980 
  87   0.0000       1.283465        34.9249 
  88   0.0000       1.316788        35.8316 
  89   0.0000       1.368441        37.2372 
  90   0.0000       1.402515        38.1644 
  91   0.0000       1.483002        40.3545 
  92   0.0000       1.500292        40.8250 
  93   0.0000       1.523894        41.4673 
  94   0.0000       1.543808        42.0091 
  95   0.0000       1.581074        43.0232 
  96   0.0000       1.630178        44.3594 
  97   0.0000       1.659243        45.1503 
  98   0.0000       1.681678        45.7608 
  99   0.0000       1.718114        46.7522 
 100   0.0000       1.814851        49.3846 
 101   0.0000       1.834375        49.9159 
 102   0.0000       1.861846        50.6634 
 103   0.0000       1.875485        51.0345 
 104   0.0000       1.889162        51.4067 
 105   0.0000       1.912828        52.0507 
 106   0.0000       1.924915        52.3796 
 107   0.0000       1.950264        53.0694 
 108   0.0000       1.978651        53.8418 
 109   0.0000       1.989676        54.1418 
 110   0.0000       2.007252        54.6201 
 111   0.0000       2.032736        55.3136 
 112   0.0000       2.043819        55.6152 
 113   0.0000       2.068721        56.2928 
 114   0.0000       2.094600        56.9970 
 115   0.0000       2.132790        58.0362 
 116   0.0000       2.140017        58.2328 
 117   0.0000       2.151546        58.5465 
 118   0.0000       2.193925        59.6997 
 119   0.0000       2.246680        61.1353 
 120   0.0000       2.258821        61.4657 
 121   0.0000       2.345331        63.8197 
 122   0.0000       2.364541        64.3424 
 123   0.0000       2.460028        66.9408 
 124   0.0000       2.473171        67.2984 
 125   0.0000       2.523932        68.6797 
 126   0.0000       2.545744        69.2732 
 127   0.0000       2.564585        69.7859 
 128   0.0000       2.610263        71.0289 
 129   0.0000       2.675891        72.8147 
 130   0.0000       2.716365        73.9161 
 131   0.0000       2.729230        74.2661 
 132   0.0000       2.759030        75.0770 
 133   0.0000       2.784742        75.7767 
 134   0.0000       2.830532        77.0227 
 135   0.0000       2.883345        78.4598 
 136   0.0000       2.985455        81.2384 
 137   0.0000       3.029027        82.4240 
 138   0.0000       3.114128        84.7397 
 139   0.0000       3.137353        85.3717 
 140   0.0000       3.231636        87.9373 
 141   0.0000       3.285990        89.4163 

                    ********************************
                    * MULLIKEN POPULATION ANALYSIS *
                    ********************************

-----------------------
MULLIKEN ATOMIC CHARGES
-----------------------
   0 N :   -0.774724
   1 C :   -0.257530
   2 C :    0.542636
   3 O :   -0.513693
   4 H :    0.208819
   5 H :    0.187606
   6 H :    0.329638
   7 H :    0.338602
   8 N :   -0.582215
   9 C :   -0.287192
  10 C :    0.558666
  11 O :   -0.411864
  12 H :    0.202295
  13 H :    0.205829
  14 H :    0.384548
  15 O :   -0.595506
  16 H :    0.464083
Sum of atomic charges:   -0.0000000

--------------------------------
MULLIKEN REDUCED ORBITAL CHARGES
--------------------------------
  0 N s       :     3.634753  s :     3.634753
      pz      :     1.614064  p :     4.106910
      px      :     1.183952
      py      :     1.308893
      dz2     :     0.007654  d :     0.033061
      dxz     :     0.004286
      dyz     :     0.006261
      dx2y2   :     0.008618
      dxy     :     0.006242
  1 C s       :     3.226666  s :     3.226666
      pz      :     1.023836  p :     2.977676
      px      :     0.822006
      py      :     1.131834
      dz2     :     0.009528  d :     0.053188
      dxz     :     0.013641
      dyz     :     0.006840
      dx2y2   :     0.012363
      dxy     :     0.010817
  2 C s       :     2.985227  s :     2.985227
      pz      :     0.830667  p :     2.356374
      px      :     0.763334
      py      :     0.762373
      dz2     :     0.017765  d :     0.115764
      dxz     :     0.038951
      dyz     :     0.014078
      dx2y2   :     0.022046
      dxy     :     0.022924
  3 O s       :     3.851088  s :     3.851088
      pz      :     1.763833  p :     4.635674
      px      :     1.377980
      py      :     1.493861
      dz2     :     0.003343  d :     0.026930
      dxz     :     0.005094
      dyz     :     0.001222
      dx2y2   :     0.008430
      dxy     :     0.008841
  4 H s       :     0.791181  s :     0.791181
  5 H s       :     0.812394  s :     0.812394
  6 H s       :     0.670362  s :     0.670362
  7 H s       :     0.661398  s :     0.661398
  8 N s       :     3.538449  s :     3.538449
      pz      :     1.145523  p :     4.011850
      px      :     1.303444
      py      :     1.562883
      dz2     :     0.008863  d :     0.031917
      dxz     :     0.008775
      dyz     :     0.005815
      dx2y2   :     0.003622
      dxy     :     0.004842
  9 C s       :     3.252462  s :     3.252462
      pz      :     0.826150  p :     2.983163
      px      :     1.105738
      py      :     1.051275
      dz2     :     0.013693  d :     0.051567
      dxz     :     0.011822
      dyz     :     0.010266
      dx2y2   :     0.009748
      dxy     :     0.006039
 10 C s       :     2.967967  s :     2.967967
      pz      :     0.795793  p :     2.339184
      px      :     0.758000
      py      :     0.785391
      dz2     :     0.028114  d :     0.134183
      dxz     :     0.043011
      dyz     :     0.020210
      dx2y2   :     0.020678
      dxy     :     0.022170
 11 O s       :     3.822523  s :     3.822523
      pz      :     1.378055  p :     4.559863
      px      :     1.748151
      py      :     1.433657
      dz2     :     0.010664  d :     0.029478
      dxz     :     0.006041
      dyz     :     0.008156
      dx2y2   :     0.002264
      dxy     :     0.002352
 12 H s       :     0.797705  s :     0.797705
 13 H s       :     0.794171  s :     0.794171
 14 H s       :     0.615452  s :     0.615452
 15 O s       :     3.835594  s :     3.835594
      pz      :     1.519020  p :     4.732469
      px      :     1.472163
      py      :     1.741286
      dz2     :     0.006644  d :     0.027442
      dxz     :     0.003458
      dyz     :     0.005678
      dx2y2   :     0.006737
      dxy     :     0.004926
 16 H s       :     0.535917  s :     0.535917


                     *******************************
                     * LOEWDIN POPULATION ANALYSIS *
                     *******************************

----------------------
LOEWDIN ATOMIC CHARGES
----------------------
   0 N :   -0.483429
   1 C :   -0.205611
   2 C :    0.104897
   3 O :   -0.296530
   4 H :    0.158604
   5 H :    0.137591
   6 H :    0.237844
   7 H :    0.242727
   8 N :   -0.198492
   9 C :   -0.207407
  10 C :    0.113305
  11 O :   -0.219107
  12 H :    0.150433
  13 H :    0.157012
  14 H :    0.273764
  15 O :   -0.298682
  16 H :    0.333080

-------------------------------
LOEWDIN REDUCED ORBITAL CHARGES
-------------------------------
  0 N s       :     3.256600  s :     3.256600
      pz      :     1.599061  p :     4.164927
      px      :     1.245966
      py      :     1.319901
      dz2     :     0.011777  d :     0.061901
      dxz     :     0.008847
      dyz     :     0.009294
      dx2y2   :     0.017374
      dxy     :     0.014609
  1 C s       :     2.924853  s :     2.924853
      pz      :     1.077874  p :     3.168114
      px      :     0.954601
      py      :     1.135639
      dz2     :     0.020829  d :     0.112644
      dxz     :     0.029855
      dyz     :     0.014274
      dx2y2   :     0.026746
      dxy     :     0.020940
  2 C s       :     2.843963  s :     2.843963
      pz      :     0.992553  p :     2.777939
      px      :     0.972140
      py      :     0.813246
      dz2     :     0.041613  d :     0.273201
      dxz     :     0.099480
      dyz     :     0.030404
      dx2y2   :     0.051150
      dxy     :     0.050554
  3 O s       :     3.538094  s :     3.538094
      pz      :     1.747784  p :     4.703625
      px      :     1.461210
      py      :     1.494632
      dz2     :     0.008042  d :     0.054810
      dxz     :     0.011575
      dyz     :     0.002561
      dx2y2   :     0.016013
      dxy     :     0.016620
  4 H s       :     0.841396  s :     0.841396
  5 H s       :     0.862409  s :     0.862409
  6 H s       :     0.762156  s :     0.762156
  7 H s       :     0.757273  s :     0.757273
  8 N s       :     3.109363  s :     3.109363
      pz      :     1.195783  p :     4.008671
      px      :     1.288274
      py      :     1.524614
      dz2     :     0.024481  d :     0.080458
      dxz     :     0.025338
      dyz     :     0.013090
      dx2y2   :     0.008203
      dxy     :     0.009345
  9 C s       :     2.934244  s :     2.934244
      pz      :     0.946406  p :     3.164057
      px      :     1.120300
      py      :     1.097350
      dz2     :     0.029671  d :     0.109106
      dxz     :     0.026114
      dyz     :     0.022791
      dx2y2   :     0.018606
      dxy     :     0.011924
 10 C s       :     2.848822  s :     2.848822
      pz      :     0.956449  p :     2.724229
      px      :     0.920022
      py      :     0.847758
      dz2     :     0.062556  d :     0.313644
      dxz     :     0.107281
      dyz     :     0.046021
      dx2y2   :     0.048381
      dxy     :     0.049405
 11 O s       :     3.540363  s :     3.540363
      pz      :     1.451895  p :     4.621030
      px      :     1.728273
      py      :     1.440862
      dz2     :     0.020063  d :     0.057714
      dxz     :     0.011944
      dyz     :     0.017902
      dx2y2   :     0.003804
      dxy     :     0.004000
 12 H s       :     0.849567  s :     0.849567
 13 H s       :     0.842988  s :     0.842988
 14 H s       :     0.726236  s :     0.726236
 15 O s       :     3.502502  s :     3.502502
      pz      :     1.499061  p :     4.742808
      px      :     1.524284
      py      :     1.719462
      dz2     :     0.013032  d :     0.053372
      dxz     :     0.009260
      dyz     :     0.008468
      dx2y2   :     0.014682
      dxy     :     0.007931
 16 H s       :     0.666920  s :     0.666920


                      *****************************
                      * MAYER POPULATION ANALYSIS *
                      *****************************

  NA   - Mulliken gross atomic population
  ZA   - Total nuclear charge
  QA   - Mulliken gross atomic charge
  VA   - Mayer's total valence
  BVA  - Mayer's bonded valence
  FA   - Mayer's free valence

  ATOM       NA         ZA         QA         VA         BVA        FA
  0 N      7.7747     7.0000    -0.7747     2.7545     2.7545    -0.0000
  1 C      6.2575     6.0000    -0.2575     3.7967     3.7967    -0.0000
  2 C      5.4574     6.0000     0.5426     3.9248     3.9248    -0.0000
  3 O      8.5137     8.0000    -0.5137     2.0384     2.0384     0.0000
  4 H      0.7912     1.0000     0.2088     0.9198     0.9198    -0.0000
  5 H      0.8124     1.0000     0.1876     0.9269     0.9269    -0.0000
  6 H      0.6704     1.0000     0.3296     0.8520     0.8520    -0.0000
  7 H      0.6614     1.0000     0.3386     0.8495     0.8495    -0.0000
  8 N      7.5822     7.0000    -0.5822     2.9661     2.9661     0.0000
  9 C      6.2872     6.0000    -0.2872     3.7373     3.7373    -0.0000
 10 C      5.4413     6.0000     0.5587     4.0487     4.0487     0.0000
 11 O      8.4119     8.0000    -0.4119     2.1207     2.1207    -0.0000
 12 H      0.7977     1.0000     0.2023     0.9239     0.9239     0.0000
 13 H      0.7942     1.0000     0.2058     0.9331     0.9331    -0.0000
 14 H      0.6155     1.0000     0.3845     0.8486     0.8486     0.0000
 15 O      8.5955     8.0000    -0.5955     1.8906     1.8906     0.0000
 16 H      0.5359     1.0000     0.4641     0.8012     0.8012     0.0000

  Mayer bond orders larger than 0.100000
B(  0-N ,  1-C ) :   0.9887 B(  0-N ,  6-H ) :   0.8565 B(  0-N ,  7-H ) :   0.8529 
B(  1-C ,  2-C ) :   0.9614 B(  1-C ,  4-H ) :   0.9247 B(  1-C ,  5-H ) :   0.9264 
B(  2-C ,  3-O ) :   1.7263 B(  2-C ,  8-N ) :   1.2157 B(  3-O , 16-H ) :   0.1499 
B(  8-N ,  9-C ) :   0.9115 B(  8-N , 14-H ) :   0.7781 B(  9-C , 10-C ) :   0.9209 
B(  9-C , 12-H ) :   0.9227 B(  9-C , 13-H ) :   0.9332 B( 10-C , 11-O ) :   1.9866 
B( 10-C , 15-O ) :   1.1545 B( 15-O , 16-H ) :   0.6238 

-------
TIMINGS
-------

Total SCF time: 0 days 0 hours 1 min 12 sec 

Total time                  ....      72.280 sec
Sum of individual times     ....      72.053 sec  ( 99.7%)

Fock matrix formation       ....      68.659 sec  ( 95.0%)
  XC integration            ....      10.843 sec  ( 15.8% of F)
    Basis function eval.    ....       3.726 sec  ( 34.4% of XC)
    Density eval.           ....       1.601 sec  ( 14.8% of XC)
    XC-Functional eval.     ....       3.532 sec  ( 32.6% of XC)
    XC-Potential eval.      ....       1.660 sec  ( 15.3% of XC)
Diagonalization             ....       0.016 sec  (  0.0%)
Density matrix formation    ....       0.003 sec  (  0.0%)
Population analysis         ....       0.002 sec  (  0.0%)
Initial guess               ....       0.669 sec  (  0.9%)
Orbital Transformation      ....       0.000 sec  (  0.0%)
Orbital Orthonormalization  ....       0.000 sec  (  0.0%)
DIIS solution               ....       0.005 sec  (  0.0%)
SOSCF solution              ....       0.009 sec  (  0.0%)
Grid generation             ....       2.689 sec  (  3.7%)

-------------------------   --------------------
FINAL SINGLE POINT ENERGY      -492.315001678525
-------------------------   --------------------

------------------------------------------------------------------------------
                         ORCA SCF GRADIENT CALCULATION
------------------------------------------------------------------------------

Gradient of the Kohn-Sham DFT energy:
Kohn-Sham wavefunction type      ... RKS
Hartree-Fock exchange scaling    ...    0.158
Number of operators              ...    1
Number of atoms                  ...   17
Basis set dimensions             ...  142
Integral neglect threshold       ... 2.5e-11
Integral primitive cutoff        ... 2.5e-12

Nuclear repulsion gradient       ... done
One Electron Gradient            ... done
Pre-screening matrix             ... done
Starting the two electron gradient:
Two electron gradient done
Exchange-correlation gradient    ... done

------------------
CARTESIAN GRADIENT
------------------

   1   N   :    0.001441883    0.001370352   -0.000034258
   2   C   :   -0.000587944   -0.001777280    0.002832351
   3   C   :    0.009344211    0.004281336    0.003156103
   4   O   :   -0.013124869   -0.006108154    0.002627392
   5   H   :   -0.000715615    0.000326215    0.000800102
   6   H   :   -0.001344392    0.000270786   -0.001940638
   7   H   :    0.000321672   -0.000034506    0.001732254
   8   H   :    0.000957542    0.000332795    0.000317878
   9   N   :    0.006378927   -0.000112778   -0.006425333
  10   C   :   -0.009341289    0.000915221   -0.002596850
  11   C   :    0.013176618   -0.008938017    0.010560530
  12   O   :    0.001632183    0.005622245   -0.011988889
  13   H   :    0.001977003   -0.000879457    0.000757619
  14   H   :   -0.000400394    0.000546749   -0.000440585
  15   H   :    0.001101196    0.000803375    0.001854332
  16   O   :   -0.014808034    0.001335539    0.005655487
  17   H   :    0.003991302    0.002045577   -0.006867495

Difference to translation invariance:
           :   -0.0000000000    0.0000000000   -0.0000000000

Norm of the cartesian gradient     ...    0.0375513808
RMS gradient                       ...    0.0052582451
MAX gradient                       ...    0.0148080344

-------
TIMINGS
-------

Total SCF gradient time            ...       22.853 sec

One electron gradient       ....       0.093 sec  (  0.4%)
Prescreening matrices       ....       0.082 sec  (  0.4%)
Two electron gradient       ....      17.932 sec  ( 78.5%)
XC gradient                 ....       4.636 sec  ( 20.3%)
------------------------------------------------------------------------------
                         ORCA GEOMETRY RELAXATION STEP
------------------------------------------------------------------------------

Reading the OPT-File                    .... done
Getting information on internals        .... done
Copying old internal coords+grads       .... done
Making the new internal coordinates     .... (new redundants).... done
Validating the new internal coordinates .... (new redundants).... done
Calculating the B-matrix                .... done
Calculating the G,G- and P matrices     .... done
Transforming gradient to internals      .... done
Projecting the internal gradient        .... done
Number of atoms                         ....  17
Number of internal coordinates          ....  71
Current Energy                          ....  -492.315001679 Eh
Current gradient norm                   ....     0.037551381 Eh/bohr
Maximum allowed component of the step   ....  0.300
Current trust radius                    ....  0.300
Evaluating the initial hessian          ....  (Almloef) done
Projecting the Hessian                  .... done
Forming the augmented Hessian           .... done
Diagonalizing the augmented Hessian     .... done
Last element of RFO vector              ....  0.977023740
Lowest eigenvalues of augmented Hessian:
 -0.002962023  0.009355775  0.011230206  0.016567129  0.017211244
Length of the computed step             ....  0.218142605
The final length of the internal step   ....  0.218142605
Converting the step to cartesian space:
 Initial RMS(Int)=    0.0258887643
Transforming coordinates:
 Iter   0:  RMS(Cart)=    0.0930375018 RMS(Int)=    0.7401082191
 Iter   1:  RMS(Cart)=    0.0027357942 RMS(Int)=    0.0014956224
 Iter   2:  RMS(Cart)=    0.0001737978 RMS(Int)=    0.0000513041
 Iter   3:  RMS(Cart)=    0.0000107016 RMS(Int)=    0.0000060354
 Iter   4:  RMS(Cart)=    0.0000006749 RMS(Int)=    0.0000002249
 Iter   5:  RMS(Cart)=    0.0000000419 RMS(Int)=    0.0000000246
done
Storing new coordinates                 .... done

                                .--------------------.
          ----------------------|Geometry convergence|-------------------------
          Item                value                   Tolerance       Converged
          ---------------------------------------------------------------------
          RMS gradient        0.0038229844            0.0001000000      NO
          MAX gradient        0.0139368607            0.0003000000      NO
          RMS step            0.0258887643            0.0020000000      NO
          MAX step            0.1036163477            0.0040000000      NO
          ........................................................
          Max(Bonds)      0.0084      Max(Angles)    1.40
          Max(Dihed)        5.94      Max(Improp)    0.00
          ---------------------------------------------------------------------

The optimization has not yet converged - more geometry cycles are needed


    ---------------------------------------------------------------------------
                         Redundant Internal Coordinates
                            (Angstroem and degrees)

        Definition                    Value    dE/dq     Step     New-Value
    ----------------------------------------------------------------------------
     1. B(C   1,N   0)                1.4553 -0.002878  0.0034    1.4588   
     2. B(C   2,C   1)                1.5194 -0.003483  0.0047    1.5241   
     3. B(O   3,C   2)                1.2257 -0.013937  0.0072    1.2329   
     4. B(H   4,C   1)                1.0952 -0.000640  0.0010    1.0961   
     5. B(H   5,C   1)                1.1000  0.000954 -0.0014    1.0985   
     6. B(H   6,N   0)                1.0154 -0.000360  0.0004    1.0158   
     7. B(H   7,N   0)                1.0133 -0.000711  0.0009    1.0142   
     8. B(N   8,C   2)                1.3372 -0.009562  0.0074    1.3447   
     9. B(C   9,N   8)                1.4498 -0.004788  0.0056    1.4554   
    10. B(C  10,C   9)                1.5462  0.001192 -0.0018    1.5444   
    11. B(O  11,C  10)                1.1980 -0.013226  0.0062    1.2042   
    12. B(H  12,C   9)                1.0979 -0.000200  0.0003    1.0982   
    13. B(H  13,C   9)                1.0893  0.000135 -0.0002    1.0891   
    14. B(H  14,N   8)                1.0110 -0.001764  0.0022    1.0131   
    15. B(O  15,C  10)                1.3188 -0.009613  0.0070    1.3258   
    16. B(H  16,O  15)                0.9962  0.007279 -0.0084    0.9878   
    17. A(C   1,N   0,H   7)          110.57 -0.001021    0.11    110.68   
    18. A(C   1,N   0,H   6)          110.31 -0.000071   -0.05    110.26   
    19. A(H   6,N   0,H   7)          107.52  0.000936   -0.30    107.22   
    20. A(C   2,C   1,H   5)          107.82  0.003200   -0.52    107.29   
    21. A(N   0,C   1,H   4)          108.63  0.001276   -0.16    108.48   
    22. A(C   2,C   1,H   4)          106.65  0.001427   -0.25    106.40   
    23. A(H   4,C   1,H   5)          107.35 -0.000077   -0.36    106.99   
    24. A(N   0,C   1,H   5)          114.97 -0.000221    0.23    115.20   
    25. A(N   0,C   1,C   2)          111.05 -0.005317    0.98    112.03   
    26. A(C   1,C   2,N   8)          114.24 -0.004731    0.67    114.90   
    27. A(O   3,C   2,N   8)          123.38 -0.002754    0.33    123.71   
    28. A(C   1,C   2,O   3)          122.37  0.007478   -0.98    121.39   
    29. A(C   2,N   8,C   9)          123.48 -0.002675    0.36    123.84   
    30. A(C   9,N   8,H  14)          119.94 -0.000155    0.01    119.96   
    31. A(C   2,N   8,H  14)          116.47  0.002872   -0.46    116.00   
    32. A(N   8,C   9,C  10)          113.22 -0.007646    1.40    114.61   
    33. A(H  12,C   9,H  13)          109.50 -0.000386   -0.40    109.09   
    34. A(C  10,C   9,H  13)          108.67  0.004876   -1.28    107.39   
    35. A(N   8,C   9,H  13)          109.14  0.001954   -0.72    108.42   
    36. A(C  10,C   9,H  12)          107.19 -0.001500    0.98    108.17   
    37. A(N   8,C   9,H  12)          109.07  0.002764    0.01    109.07   
    38. A(C   9,C  10,O  11)          121.81  0.000329   -0.09    121.72   
    39. A(O  11,C  10,O  15)          123.36  0.003910   -0.49    122.87   
    40. A(C   9,C  10,O  15)          114.82 -0.004232    0.55    115.38   
    41. A(C  10,O  15,H  16)          112.52  0.007075   -1.08    111.44   
    42. D(C   2,C   1,N   0,H   6)     75.70 -0.000635    1.76     77.47   
    43. D(H   5,C   1,N   0,H   6)    -47.04 -0.000490    1.50    -45.53   
    44. D(H   4,C   1,N   0,H   6)   -167.31 -0.001184    1.93   -165.38   
    45. D(C   2,C   1,N   0,H   7)   -165.49 -0.000161    1.43   -164.06   
    46. D(H   5,C   1,N   0,H   7)     71.76 -0.000016    1.17     72.93   
    47. D(H   4,C   1,N   0,H   7)    -48.51 -0.000710    1.60    -46.91   
    48. D(O   3,C   2,C   1,N   0)   -161.14  0.000179    0.24   -160.89   
    49. D(N   8,C   2,C   1,H   5)    146.94 -0.001056    0.04    146.98   
    50. D(N   8,C   2,C   1,N   0)     20.16  0.000582   -0.56     19.61   
    51. D(N   8,C   2,C   1,H   4)    -98.03  0.001097   -0.75    -98.78   
    52. D(O   3,C   2,C   1,H   4)     80.67  0.000694    0.04     80.72   
    53. D(O   3,C   2,C   1,H   5)    -34.35 -0.001459    0.84    -33.52   
    54. D(H  14,N   8,C   2,C   1)      1.30  0.001485   -2.16     -0.86   
    55. D(C   9,N   8,C   2,O   3)      6.38  0.000998   -1.32      5.06   
    56. D(C   9,N   8,C   2,C   1)   -174.94  0.000741   -0.53   -175.47   
    57. D(H  14,N   8,C   2,O   3)   -177.39  0.001743   -2.95   -180.33   
    58. D(H  13,C   9,N   8,H  14)     -9.74  0.000901   -3.02    -12.75   
    59. D(H  13,C   9,N   8,C   2)    166.38  0.001773   -4.72    161.66   
    60. D(H  12,C   9,N   8,H  14)   -129.32 -0.001438   -2.11   -131.43   
    61. D(H  12,C   9,N   8,C   2)     46.79 -0.000566   -3.81     42.99   
    62. D(C  10,C   9,N   8,H  14)    111.43  0.003424   -4.24    107.20   
    63. D(C  10,C   9,N   8,C   2)    -72.45  0.004296   -5.94    -78.39   
    64. D(O  15,C  10,C   9,H  13)   -177.94 -0.000236   -0.00   -177.94   
    65. D(O  15,C  10,C   9,H  12)    -59.69  0.001081   -0.62    -60.31   
    66. D(O  15,C  10,C   9,N   8)     60.63 -0.001147    0.91     61.53   
    67. D(O  11,C  10,C   9,H  13)      0.73  0.000149   -1.05     -0.32   
    68. D(O  11,C  10,C   9,H  12)    118.98  0.001466   -1.67    117.31   
    69. D(O  11,C  10,C   9,N   8)   -120.70 -0.000762   -0.14   -120.84   
    70. D(H  16,O  15,C  10,O  11)    177.08 -0.000564    1.06    178.14   
    71. D(H  16,O  15,C  10,C   9)     -4.27 -0.000228    0.00     -4.27   
    ----------------------------------------------------------------------------

         *************************************************************
         *                GEOMETRY OPTIMIZATION CYCLE   2            *
         *************************************************************
---------------------------------
CARTESIAN COORDINATES (ANGSTROEM)
---------------------------------
  N     -4.873283   -1.157142    0.108243
  C     -3.423719   -1.001210    0.158025
  C     -2.952803   -0.460377    1.502863
  O     -1.843199    0.061286    1.632244
  H     -2.963853   -1.989610    0.043840
  H     -2.995647   -0.356098   -0.621322
  H     -5.319586   -0.255214   -0.030526
  H     -5.143412   -1.748713   -0.669990
  N     -3.829488   -0.609501    2.511476
  C     -3.620932   -0.080793    3.851288
  C     -2.659671   -0.912587    4.728414
  O     -3.011799   -1.389880    5.776398
  H     -3.219739    0.938765    3.775834
  H     -4.582306   -0.048542    4.362111
  H     -4.710211   -1.049802    2.272911
  O     -1.420016   -1.017909    4.270297
  H     -1.324947   -0.591132    3.384514

----------------------------
CARTESIAN COORDINATES (A.U.)
----------------------------
  NO LB      ZA    FRAG     MASS         X           Y           Z
   0 N     7.0000    0    14.007   -9.209170   -2.186681    0.204550
   1 C     6.0000    0    12.011   -6.469891   -1.892014    0.298625
   2 C     6.0000    0    12.011   -5.579989   -0.869986    2.839999
   3 O     8.0000    0    15.999   -3.483141    0.115814    3.084494
   4 H     1.0000    0     1.008   -5.600871   -3.759818    0.082846
   5 H     1.0000    0     1.008   -5.660953   -0.672928   -1.174129
   6 H     1.0000    0     1.008  -10.052561   -0.482285   -0.057686
   7 H     1.0000    0     1.008   -9.719639   -3.304588   -1.266097
   8 N     7.0000    0    14.007   -7.236684   -1.151789    4.746002
   9 C     6.0000    0    12.011   -6.842569   -0.152678    7.277880
  10 C     6.0000    0    12.011   -5.026049   -1.724540    8.935408
  11 O     8.0000    0    15.999   -5.691475   -2.626493   10.915810
  12 H     1.0000    0     1.008   -6.084425    1.774008    7.135292
  13 H     1.0000    0     1.008   -8.659304   -0.091732    8.243195
  14 H     1.0000    0     1.008   -8.901009   -1.983838    4.295178
  15 O     8.0000    0    15.999   -2.683441   -1.923569    8.069692
  16 H     1.0000    0     1.008   -2.503786   -1.117078    6.395805

--------------------------------
INTERNAL COORDINATES (ANGSTROEM)
--------------------------------
 N      0   0   0     0.000000000000     0.00000000     0.00000000
 C      1   0   0     1.458776151262     0.00000000     0.00000000
 C      2   1   0     1.524090371843   112.02887725     0.00000000
 O      3   2   1     1.232920171452   121.38712326   199.10473919
 H      2   1   3     1.096105840788   108.47870585   117.14705339
 H      2   1   3     1.098543573717   115.19955499   236.99372352
 H      1   2   3     1.015832796473   110.26293008    77.46937720
 H      1   2   3     1.014185828251   110.68343191   195.93918599
 N      3   2   1     1.344661579956   114.90184052    19.60999912
 C      9   3   2     1.455377429111   123.83544953   184.53562942
 C     10   9   3     1.544426888331   114.60565094   281.60386646
 O     11  10   9     1.204189380247   121.71711980   239.16833950
 H     10   9   3     1.098247731348   109.04731682    42.98504133
 H     10   9   3     1.089137832319   108.42361091   161.66012381
 H      9   3   2     1.013139462258   115.99764489   359.14803942
 O     11  10   9     1.325786021832   115.37312845    61.54665658
 H     16  11  10     0.987819697394   111.43948432   355.72889338

---------------------------
INTERNAL COORDINATES (A.U.)
---------------------------
 N      0   0   0     0.000000000000     0.00000000     0.00000000
 C      1   0   0     2.756687416581     0.00000000     0.00000000
 C      2   1   0     2.880113406129   112.02887725     0.00000000
 O      3   2   1     2.329881469032   121.38712326   199.10473919
 H      2   1   3     2.071339852881   108.47870585   117.14705339
 H      2   1   3     2.075946500504   115.19955499   236.99372352
 H      1   2   3     1.919645783189   110.26293008    77.46937720
 H      1   2   3     1.916533464299   110.68343191   195.93918599
 N      3   2   1     2.541042128923   114.90184052    19.60999912
 C      9   3   2     2.750264762510   123.83544953   184.53562942
 C     10   9   3     2.918543852810   114.60565094   281.60386646
 O     11  10   9     2.275588142044   121.71711980   239.16833950
 H     10   9   3     2.075387439447   109.04731682    42.98504133
 H     10   9   3     2.058172225176   108.42361091   161.66012381
 H      9   3   2     1.914556119136   115.99764489   359.14803942
 O     11  10   9     2.505372493443   115.37312845    61.54665658
 H     16  11  10     1.866708697767   111.43948432   355.72889338


Diagonalization of the overlap matrix:
Smallest eigenvalue                        ... 3.606e-03
Time for diagonalization                   ...    0.004 sec
Threshold for overlap eigenvalues          ... 1.000e-08
Number of eigenvalues below threshold      ... 0
Time for construction of square roots      ...    0.001 sec
Total time needed                          ...    0.005 sec

-------------------
DFT GRID GENERATION
-------------------

General Integration Accuracy     IntAcc      ...  4.670
Radial Grid Type                 RadialGrid  ... Gauss-Chebyshev
Angular Grid (max. acc.)         AngularGrid ... Lebedev-302
Angular grid pruning method      GridPruning ... 3 (G Style)
Weight generation scheme         WeightScheme... Becke
Basis function cutoff            BFCut       ...    1.0000e-11
Integration weight cutoff        WCut        ...    1.0000e-14
Grids for H and He will be reduced by one unit

# of grid points (after initial pruning)     ...  83060 (   0.0 sec)
# of grid points (after weights+screening)   ...  75993 (   0.2 sec)
nearest neighbour list constructed           ...    0.0 sec
Grid point re-assignment to atoms done       ...    0.0 sec
Grid point division into batches done        ...    0.3 sec
Reduced shell lists constructed in    0.6 sec

Total number of grid points                  ...    75993
Total number of batches                      ...     1195
Average number of points per batch           ...       63
Average number of grid points per atom       ...     4470
Average number of shells per batch           ...    43.09 (61.56%)
Average number of basis functions per batch  ...    88.69 (62.46%)
Average number of large shells per batch     ...    32.06 (74.40%)
Average number of large basis fcns per batch ...    65.97 (74.38%)
Maximum spatial batch extension              ...  19.75, 21.24, 20.73 au
Average spatial batch extension              ...   2.48,  2.54,  2.42 au

Time for grid setup =    0.824 sec

--------------
SCF ITERATIONS
--------------
ITER       Energy         Delta-E        Max-DP      RMS-DP      [F,P]     Damp
               ***  Starting incremental Fock matrix formation  ***
  0   -492.3026605647   0.000000000000 0.00606510  0.00027488  0.0321117 0.7000
                      *** Initiating the SOSCF procedure ***
                      *** Re-Reading the Fockian *** 
                      *** Removing any level shift *** 
ITER      Energy       Delta-E        Grad      Rot      Max-DP    RMS-DP
  1   -492.30522574  -0.0025651786  0.001888  0.001888  0.018104  0.000836
               *** Restarting incremental Fock matrix formation ***
  2   -492.31287552  -0.0076497769  0.002354  0.003755  0.006950  0.000304
  3   -492.31343489  -0.0005593733  0.001472  0.003443  0.006519  0.000249
  4   -492.31348937  -0.0000544750  0.001109  0.001093  0.002859  0.000096
  5   -492.31355323  -0.0000638620  0.000103  0.000183  0.000546  0.000015
  6   -492.31355390  -0.0000006698  0.000071  0.000096  0.000200  0.000006
  7   -492.31355427  -0.0000003688  0.000022  0.000060  0.000076  0.000003
  8   -492.31355429  -0.0000000174  0.000016  0.000020  0.000042  0.000001
  9   -492.31355429  -0.0000000083  0.000005  0.000011  0.000011  0.000000
 10   -492.31355430  -0.0000000012  0.000004  0.000004  0.000005  0.000000
                  ***Gradient check signals convergence***
              ***Rediagonalizing the Fockian in SOSCF/NRSCF***

               *****************************************************
               *                     SUCCESS                       *
               *           SCF CONVERGED AFTER  11 CYCLES          *
               *****************************************************

Setting up the final grid:

General Integration Accuracy     IntAcc      ...  5.010
Radial Grid Type                 RadialGrid  ... Gauss-Chebyshev
Angular Grid (max. acc.)         AngularGrid ... Lebedev-434
Angular grid pruning method      GridPruning ... 3 (G Style)
Weight generation scheme         WeightScheme... Becke
Basis function cutoff            BFCut       ...    1.0000e-11
Integration weight cutoff        WCut        ...    1.0000e-14
Grids for H and He will be reduced by one unit

# of grid points (after initial pruning)     ... 150034 (   0.0 sec)
# of grid points (after weights+screening)   ... 136975 (   0.3 sec)
nearest neighbour list constructed           ...    0.0 sec
Grid point re-assignment to atoms done       ...    0.0 sec
Grid point division into batches done        ...    0.9 sec
Reduced shell lists constructed in    1.5 sec

Total number of grid points                  ...   136975
Total number of batches                      ...     2150
Average number of points per batch           ...       63
Average number of grid points per atom       ...     8057
Average number of shells per batch           ...    41.90 (59.85%)
Average number of basis functions per batch  ...    86.14 (60.66%)
Average number of large shells per batch     ...    30.90 (73.75%)
Average number of large basis fcns per batch ...    63.59 (73.82%)
Maximum spatial batch extension              ...  21.13, 24.74, 21.88 au
Average spatial batch extension              ...   2.00,  2.05,  1.96 au

Final grid set up in    1.9 sec
Final integration                            ... done (   1.3 sec)
Change in XC energy                          ...    -0.001399158
Integrated number of electrons               ...    70.000007390
Previous integrated no of electrons          ...    70.000002214
Total Energy       :         -492.31495345 Eh          -13396.57095 eV
  Last Energy change         ...    3.2259e-10  Tolerance :   1.0000e-08
  Last MAX-Density change    ...    1.8978e-06  Tolerance :   1.0000e-07
             **** THE GBW FILE WAS UPDATED (gly-gly.gbw) ****
             **** DENSITY FILE WAS UPDATED (gly-gly.scfp) ****
             **** ENERGY FILE WAS UPDATED (gly-gly.en.tmp) ****
             **** THE GBW FILE WAS UPDATED (gly-gly.gbw) ****
             **** DENSITY FILE WAS UPDATED (gly-gly.scfp) ****
Total SCF time: 0 days 0 hours 0 min 58 sec 

-------------------------   --------------------
FINAL SINGLE POINT ENERGY      -492.314953453455
-------------------------   --------------------

------------------------------------------------------------------------------
                         ORCA SCF GRADIENT CALCULATION
------------------------------------------------------------------------------

Gradient of the Kohn-Sham DFT energy:
Kohn-Sham wavefunction type      ... RKS
Hartree-Fock exchange scaling    ...    0.158
Number of operators              ...    1
Number of atoms                  ...   17
Basis set dimensions             ...  142
Integral neglect threshold       ... 2.5e-11
Integral primitive cutoff        ... 2.5e-12

Nuclear repulsion gradient       ... done
One Electron Gradient            ... done
Pre-screening matrix             ... done
Starting the two electron gradient:
Two electron gradient done
Exchange-correlation gradient    ... done

------------------
CARTESIAN GRADIENT
------------------

   1   N   :   -0.000533665   -0.000391255   -0.001457962
   2   C   :    0.000899461    0.000369062    0.000451129
   3   C   :   -0.001636547   -0.003928859    0.001357985
   4   O   :    0.000002338    0.004484075   -0.005101731
   5   H   :   -0.000292933   -0.000092924    0.000403367
   6   H   :   -0.000893721   -0.000549142   -0.001208818
   7   H   :    0.000045772    0.000202400    0.001314529
   8   H   :    0.000210421    0.000233165   -0.000447129
   9   N   :    0.002321447    0.000663923   -0.004090521
  10   C   :   -0.003965264    0.001757361    0.001095250
  11   C   :    0.013264414   -0.005540096    0.001715271
  12   O   :   -0.002182854    0.000481830    0.000139792
  13   H   :    0.000429570    0.000426169    0.000707465
  14   H   :    0.000121660   -0.000066954   -0.000726354
  15   H   :   -0.000692585    0.001137344    0.000370413
  16   O   :   -0.009909825    0.000818859    0.009633489
  17   H   :    0.002812311   -0.000004957   -0.004156174

Difference to translation invariance:
           :   -0.0000000000    0.0000000000    0.0000000000

Norm of the cartesian gradient     ...    0.0234957268
RMS gradient                       ...    0.0032900598
MAX gradient                       ...    0.0132644138

-------
TIMINGS
-------

Total SCF gradient time            ...       22.091 sec

One electron gradient       ....       0.094 sec  (  0.4%)
Prescreening matrices       ....       0.081 sec  (  0.4%)
Two electron gradient       ....      17.490 sec  ( 79.2%)
XC gradient                 ....       4.316 sec  ( 19.5%)
------------------------------------------------------------------------------
                         ORCA GEOMETRY RELAXATION STEP
------------------------------------------------------------------------------

Reading the OPT-File                    .... done
Getting information on internals        .... done
Copying old internal coords+grads       .... done
Making the new internal coordinates     .... (new redundants).... done
Validating the new internal coordinates .... (new redundants).... done
Calculating the B-matrix                .... done
Calculating the G,G- and P matrices     .... done
Transforming gradient to internals      .... done
Projecting the internal gradient        .... done
Number of atoms                         ....  17
Number of internal coordinates          ....  71
Current Energy                          ....  -492.314953453 Eh
Current gradient norm                   ....     0.023495727 Eh/bohr
Maximum allowed component of the step   ....  0.300
Current trust radius                    ....  0.300
Updating the Hessian (BFGS)             .... done
Forming the augmented Hessian           .... done
Diagonalizing the augmented Hessian     .... done
Last element of RFO vector              ....  0.985871808
Lowest eigenvalues of augmented Hessian:
 -0.002490545  0.009287018  0.011230312  0.015694794  0.017205357
Length of the computed step             ....  0.169901983
The final length of the internal step   ....  0.169901983
Converting the step to cartesian space:
 Initial RMS(Int)=    0.0201636557
Transforming coordinates:
 Iter   0:  RMS(Cart)=    0.0649041233 RMS(Int)=    0.7400259168
 Iter   1:  RMS(Cart)=    0.0016727932 RMS(Int)=    0.0010603682
 Iter   2:  RMS(Cart)=    0.0000809687 RMS(Int)=    0.0000376596
 Iter   3:  RMS(Cart)=    0.0000046557 RMS(Int)=    0.0000036924
 Iter   4:  RMS(Cart)=    0.0000002821 RMS(Int)=    0.0000001554
 Iter   5:  RMS(Cart)=    0.0000000183 RMS(Int)=    0.0000000164
done
Storing new coordinates                 .... done

                                .--------------------.
          ----------------------|Geometry convergence|-------------------------
          Item                value                   Tolerance       Converged
          ---------------------------------------------------------------------
          Energy change       0.0000482251            0.0000050000      NO
          RMS gradient        0.0039448888            0.0001000000      NO
          MAX gradient        0.0143459350            0.0003000000      NO
          RMS step            0.0201636557            0.0020000000      NO
          MAX step            0.0508282643            0.0040000000      NO
          ........................................................
          Max(Bonds)      0.0086      Max(Angles)    1.03
          Max(Dihed)        2.91      Max(Improp)    0.00
          ---------------------------------------------------------------------

The optimization has not yet converged - more geometry cycles are needed


    ---------------------------------------------------------------------------
                         Redundant Internal Coordinates
                            (Angstroem and degrees)

        Definition                    Value    dE/dq     Step     New-Value
    ----------------------------------------------------------------------------
     1. B(C   1,N   0)                1.4588  0.000295  0.0016    1.4604   
[...]
   4   2.0000     -14.425362      -392.5341 
   5   2.0000     -10.390274      -282.7337 
   6   2.0000     -10.388249      -282.6786 
   7   2.0000     -10.321368      -280.8587 
   8   2.0000     -10.320097      -280.8241 
   9   2.0000      -1.213541       -33.0221 
  10   2.0000      -1.184532       -32.2327 
  11   2.0000      -1.125133       -30.6164 
  12   2.0000      -1.077522       -29.3209 
  13   2.0000      -1.044391       -28.4193 
  14   2.0000      -0.888360       -24.1735 
  15   2.0000      -0.834281       -22.7020 
  16   2.0000      -0.727780       -19.8039 
  17   2.0000      -0.707056       -19.2400 
  18   2.0000      -0.665948       -18.1214 
  19   2.0000      -0.653395       -17.7798 
  20   2.0000      -0.624768       -17.0008 
  21   2.0000      -0.612655       -16.6712 
  22   2.0000      -0.578286       -15.7360 
  23   2.0000      -0.559342       -15.2205 
  24   2.0000      -0.548477       -14.9248 
  25   2.0000      -0.533590       -14.5197 
  26   2.0000      -0.524753       -14.2793 
  27   2.0000      -0.505108       -13.7447 
  28   2.0000      -0.485991       -13.2245 
  29   2.0000      -0.473163       -12.8754 
  30   2.0000      -0.404887       -11.0175 
  31   2.0000      -0.399237       -10.8638 
  32   2.0000      -0.391207       -10.6453 
  33   2.0000      -0.368197       -10.0192 
  34   2.0000      -0.348852        -9.4928 
  35   0.0000       0.093066         2.5325 
  36   0.0000       0.119883         3.2622 
  37   0.0000       0.151802         4.1308 
  38   0.0000       0.190645         5.1877 
  39   0.0000       0.208539         5.6746 
  40   0.0000       0.215111         5.8535 
  41   0.0000       0.232316         6.3216 
  42   0.0000       0.264114         7.1869 
  43   0.0000       0.277110         7.5405 
  44   0.0000       0.283310         7.7093 
  45   0.0000       0.288910         7.8616 
  46   0.0000       0.314904         8.5690 
  47   0.0000       0.330860         9.0032 
  48   0.0000       0.358400         9.7526 
  49   0.0000       0.409090        11.1319 
  50   0.0000       0.458176        12.4676 
  51   0.0000       0.480618        13.0783 
  52   0.0000       0.523180        14.2364 
  53   0.0000       0.613746        16.7009 
  54   0.0000       0.616089        16.7646 
  55   0.0000       0.638102        17.3636 
  56   0.0000       0.648298        17.6411 
  57   0.0000       0.661865        18.0103 
  58   0.0000       0.685011        18.6401 
  59   0.0000       0.700072        19.0499 
  60   0.0000       0.710546        19.3349 
  61   0.0000       0.749534        20.3958 
  62   0.0000       0.768793        20.9199 
  63   0.0000       0.792248        21.5582 
  64   0.0000       0.800004        21.7692 
  65   0.0000       0.821689        22.3593 
  66   0.0000       0.839765        22.8512 
  67   0.0000       0.890989        24.2451 
  68   0.0000       0.898496        24.4493 
  69   0.0000       0.924529        25.1577 
  70   0.0000       0.938140        25.5281 
  71   0.0000       0.966748        26.3065 
  72   0.0000       0.976729        26.5782 
  73   0.0000       0.981155        26.6986 
  74   0.0000       0.999420        27.1956 
  75   0.0000       1.019061        27.7301 
  76   0.0000       1.025613        27.9083 
  77   0.0000       1.030187        28.0328 
  78   0.0000       1.044584        28.4246 
  79   0.0000       1.051542        28.6139 
  80   0.0000       1.100032        29.9334 
  81   0.0000       1.126884        30.6641 
  82   0.0000       1.149851        31.2890 
  83   0.0000       1.180077        32.1115 
  84   0.0000       1.187857        32.3232 
  85   0.0000       1.222194        33.2576 
  86   0.0000       1.250212        34.0200 
  87   0.0000       1.267898        34.5013 
  88   0.0000       1.316324        35.8190 
  89   0.0000       1.357295        36.9339 
  90   0.0000       1.401949        38.1490 
  91   0.0000       1.476991        40.1910 
  92   0.0000       1.492197        40.6047 
  93   0.0000       1.520550        41.3763 
  94   0.0000       1.539618        41.8951 
  95   0.0000       1.584087        43.1052 
  96   0.0000       1.613703        43.9111 
  97   0.0000       1.663385        45.2630 
  98   0.0000       1.678085        45.6630 
  99   0.0000       1.712147        46.5899 
 100   0.0000       1.807942        49.1966 
 101   0.0000       1.831822        49.8464 
 102   0.0000       1.863468        50.7075 
 103   0.0000       1.865990        50.7762 
 104   0.0000       1.894118        51.5416 
 105   0.0000       1.909355        51.9562 
 106   0.0000       1.921186        52.2781 
 107   0.0000       1.957578        53.2684 
 108   0.0000       1.973288        53.6959 
 109   0.0000       1.991618        54.1947 
 110   0.0000       2.004892        54.5559 
 111   0.0000       2.043353        55.6025 
 112   0.0000       2.047290        55.7096 
 113   0.0000       2.063007        56.1373 
 114   0.0000       2.075895        56.4880 
 115   0.0000       2.136206        58.1291 
 116   0.0000       2.141895        58.2839 
 117   0.0000       2.152852        58.5821 
 118   0.0000       2.190139        59.5967 
 119   0.0000       2.241323        60.9895 
 120   0.0000       2.263559        61.5946 
 121   0.0000       2.331685        63.4484 
 122   0.0000       2.354468        64.0683 
 123   0.0000       2.448322        66.6222 
 124   0.0000       2.467001        67.1305 
 125   0.0000       2.523252        68.6612 
 126   0.0000       2.560380        69.6715 
 127   0.0000       2.567513        69.8656 
 128   0.0000       2.611662        71.0669 
 129   0.0000       2.668153        72.6041 
 130   0.0000       2.705390        73.6174 
 131   0.0000       2.727151        74.2096 
 132   0.0000       2.751719        74.8781 
 133   0.0000       2.781637        75.6922 
 134   0.0000       2.816960        76.6534 
 135   0.0000       2.867915        78.0399 
 136   0.0000       2.978908        81.0602 
 137   0.0000       3.020260        82.1855 
 138   0.0000       3.112430        84.6935 
 139   0.0000       3.127473        85.1029 
 140   0.0000       3.211285        87.3835 
 141   0.0000       3.271546        89.0233 

                    ********************************
                    * MULLIKEN POPULATION ANALYSIS *
                    ********************************

-----------------------
MULLIKEN ATOMIC CHARGES
-----------------------
   0 N :   -0.774312
   1 C :   -0.264029
   2 C :    0.548698
   3 O :   -0.517732
   4 H :    0.207905
   5 H :    0.192198
   6 H :    0.332245
   7 H :    0.338578
   8 N :   -0.586527
   9 C :   -0.287332
  10 C :    0.563388
  11 O :   -0.413724
  12 H :    0.208317
  13 H :    0.207184
  14 H :    0.384150
  15 O :   -0.598415
  16 H :    0.459408
Sum of atomic charges:   -0.0000000

--------------------------------
MULLIKEN REDUCED ORBITAL CHARGES
--------------------------------
  0 N s       :     3.631252  s :     3.631252
      pz      :     1.670832  p :     4.110576
      px      :     1.179441
      py      :     1.260304
      dz2     :     0.004091  d :     0.032484
      dxz     :     0.004204
      dyz     :     0.010359
      dx2y2   :     0.006880
      dxy     :     0.006950
  1 C s       :     3.228562  s :     3.228562
      pz      :     1.022942  p :     2.982546
      px      :     0.827991
      py      :     1.131612
      dz2     :     0.009357  d :     0.052921
      dxz     :     0.013243
      dyz     :     0.007822
      dx2y2   :     0.010916
      dxy     :     0.011583
  2 C s       :     2.990894  s :     2.990894
      pz      :     0.832933  p :     2.346700
      px      :     0.753617
      py      :     0.760149
      dz2     :     0.017394  d :     0.113708
      dxz     :     0.039110
      dyz     :     0.013505
      dx2y2   :     0.020792
      dxy     :     0.022907
  3 O s       :     3.857665  s :     3.857665
      pz      :     1.769441  p :     4.633342
      px      :     1.368257
      py      :     1.495644
      dz2     :     0.003207  d :     0.026724
      dxz     :     0.005118
      dyz     :     0.001175
      dx2y2   :     0.008323
      dxy     :     0.008900
  4 H s       :     0.792095  s :     0.792095
  5 H s       :     0.807802  s :     0.807802
  6 H s       :     0.667755  s :     0.667755
  7 H s       :     0.661422  s :     0.661422
  8 N s       :     3.541379  s :     3.541379
      pz      :     1.139711  p :     4.013647
      px      :     1.296533
      py      :     1.577403
      dz2     :     0.008729  d :     0.031501
      dxz     :     0.008876
      dyz     :     0.005636
      dx2y2   :     0.003701
      dxy     :     0.004558
  9 C s       :     3.251123  s :     3.251123
      pz      :     0.827118  p :     2.984465
      px      :     1.105506
      py      :     1.051841
      dz2     :     0.013423  d :     0.051744
      dxz     :     0.012142
      dyz     :     0.010593
      dx2y2   :     0.008768
      dxy     :     0.006817
 10 C s       :     2.971582  s :     2.971582
      pz      :     0.794288  p :     2.334168
      px      :     0.752350
      py      :     0.787529
      dz2     :     0.027981  d :     0.130862
      dxz     :     0.041787
      dyz     :     0.022391
      dx2y2   :     0.019522
      dxy     :     0.019181
 11 O s       :     3.828352  s :     3.828352
      pz      :     1.371101  p :     4.556134
      px      :     1.730548
      py      :     1.454485
      dz2     :     0.010684  d :     0.029238
      dxz     :     0.006388
      dyz     :     0.008274
      dx2y2   :     0.001768
      dxy     :     0.002124
 12 H s       :     0.791683  s :     0.791683
 13 H s       :     0.792816  s :     0.792816
 14 H s       :     0.615850  s :     0.615850
 15 O s       :     3.843917  s :     3.843917
      pz      :     1.513698  p :     4.726296
      px      :     1.477686
      py      :     1.734912
      dz2     :     0.006249  d :     0.028202
      dxz     :     0.003190
      dyz     :     0.006861
      dx2y2   :     0.006883
      dxy     :     0.005020
 16 H s       :     0.540592  s :     0.540592


                     *******************************
                     * LOEWDIN POPULATION ANALYSIS *
                     *******************************

----------------------
LOEWDIN ATOMIC CHARGES
----------------------
   0 N :   -0.484596
   1 C :   -0.207302
   2 C :    0.108939
   3 O :   -0.307667
   4 H :    0.158985
   5 H :    0.141969
   6 H :    0.239423
   7 H :    0.243396
   8 N :   -0.202270
   9 C :   -0.205934
  10 C :    0.123794
  11 O :   -0.221025
  12 H :    0.154315
  13 H :    0.158244
  14 H :    0.273704
  15 O :   -0.302963
  16 H :    0.328987

-------------------------------
LOEWDIN REDUCED ORBITAL CHARGES
-------------------------------
  0 N s       :     3.254012  s :     3.254012
      pz      :     1.655908  p :     4.169733
      px      :     1.240990
      py      :     1.272835
      dz2     :     0.006543  d :     0.060851
      dxz     :     0.008201
      dyz     :     0.014862
      dx2y2   :     0.015092
      dxy     :     0.016152
  1 C s       :     2.925106  s :     2.925106
      pz      :     1.077971  p :     3.169757
      px      :     0.955862
      py      :     1.135923
      dz2     :     0.020727  d :     0.112439
      dxz     :     0.029335
      dyz     :     0.016208
      dx2y2   :     0.023903
      dxy     :     0.022266
  2 C s       :     2.849999  s :     2.849999
      pz      :     0.995127  p :     2.774057
      px      :     0.972335
      py      :     0.806595
      dz2     :     0.040849  d :     0.267005
      dxz     :     0.099027
      dyz     :     0.028763
      dx2y2   :     0.048646
      dxy     :     0.049721
  3 O s       :     3.547733  s :     3.547733
      pz      :     1.755151  p :     4.706191
      px      :     1.455316
      py      :     1.495725
      dz2     :     0.007699  d :     0.053743
      dxz     :     0.011443
      dyz     :     0.002311
      dx2y2   :     0.016191
      dxy     :     0.016100
  4 H s       :     0.841015  s :     0.841015
  5 H s       :     0.858031  s :     0.858031
  6 H s       :     0.760577  s :     0.760577
  7 H s       :     0.756604  s :     0.756604
  8 N s       :     3.112052  s :     3.112052
      pz      :     1.190013  p :     4.011068
      px      :     1.283318
      py      :     1.537737
      dz2     :     0.024130  d :     0.079151
      dxz     :     0.025491
      dyz     :     0.012657
      dx2y2   :     0.008182
      dxy     :     0.008691
  9 C s       :     2.931616  s :     2.931616
      pz      :     0.946008  p :     3.164528
      px      :     1.121048
      py      :     1.097472
      dz2     :     0.029227  d :     0.109791
      dxz     :     0.026641
      dyz     :     0.023598
      dx2y2   :     0.016665
      dxy     :     0.013659
 10 C s       :     2.852504  s :     2.852504
      pz      :     0.963192  p :     2.719327
      px      :     0.907561
      py      :     0.848574
      dz2     :     0.062754  d :     0.304375
      dxz     :     0.103985
      dyz     :     0.050193
      dx2y2   :     0.045758
      dxy     :     0.041684
 11 O s       :     3.545603  s :     3.545603
      pz      :     1.449523  p :     4.618580
      px      :     1.712785
      py      :     1.456272
      dz2     :     0.021044  d :     0.056842
      dxz     :     0.012497
      dyz     :     0.016850
      dx2y2   :     0.003017
      dxy     :     0.003434
 12 H s       :     0.845685  s :     0.845685
 13 H s       :     0.841756  s :     0.841756
 14 H s       :     0.726296  s :     0.726296
 15 O s       :     3.512073  s :     3.512073
      pz      :     1.496267  p :     4.737956
      px      :     1.524715
      py      :     1.716974
      dz2     :     0.012118  d :     0.052934
      dxz     :     0.008788
      dyz     :     0.009891
      dx2y2   :     0.013670
      dxy     :     0.008467
 16 H s       :     0.671013  s :     0.671013


                      *****************************
                      * MAYER POPULATION ANALYSIS *
                      *****************************

  NA   - Mulliken gross atomic population
  ZA   - Total nuclear charge
  QA   - Mulliken gross atomic charge
  VA   - Mayer's total valence
  BVA  - Mayer's bonded valence
  FA   - Mayer's free valence

  ATOM       NA         ZA         QA         VA         BVA        FA
  0 N      7.7743     7.0000    -0.7743     2.7531     2.7531    -0.0000
  1 C      6.2640     6.0000    -0.2640     3.7981     3.7981     0.0000
  2 C      5.4513     6.0000     0.5487     3.9045     3.9045     0.0000
  3 O      8.5177     8.0000    -0.5177     2.0263     2.0263    -0.0000
  4 H      0.7921     1.0000     0.2079     0.9221     0.9221    -0.0000
  5 H      0.8078     1.0000     0.1922     0.9265     0.9265     0.0000
  6 H      0.6678     1.0000     0.3322     0.8509     0.8509     0.0000
  7 H      0.6614     1.0000     0.3386     0.8492     0.8492     0.0000
  8 N      7.5865     7.0000    -0.5865     2.9648     2.9648    -0.0000
  9 C      6.2873     6.0000    -0.2873     3.7362     3.7362    -0.0000
 10 C      5.4366     6.0000     0.5634     4.0362     4.0362    -0.0000
 11 O      8.4137     8.0000    -0.4137     2.1167     2.1167     0.0000
 12 H      0.7917     1.0000     0.2083     0.9229     0.9229     0.0000
 13 H      0.7928     1.0000     0.2072     0.9327     0.9327    -0.0000
 14 H      0.6158     1.0000     0.3842     0.8492     0.8492    -0.0000
 15 O      8.5984     8.0000    -0.5984     1.8921     1.8921     0.0000
 16 H      0.5406     1.0000     0.4594     0.8054     0.8054    -0.0000

  Mayer bond orders larger than 0.100000
B(  0-N ,  1-C ) :   0.9885 B(  0-N ,  6-H ) :   0.8578 B(  0-N ,  7-H ) :   0.8542 
B(  1-C ,  2-C ) :   0.9530 B(  1-C ,  4-H ) :   0.9288 B(  1-C ,  5-H ) :   0.9273 
B(  2-C ,  3-O ) :   1.7216 B(  2-C ,  8-N ) :   1.2143 B(  3-O , 16-H ) :   0.1400 
B(  8-N ,  9-C ) :   0.9104 B(  8-N , 14-H ) :   0.7777 B(  9-C , 10-C ) :   0.9252 
B(  9-C , 12-H ) :   0.9198 B(  9-C , 13-H ) :   0.9321 B( 10-C , 11-O ) :   1.9823 
B( 10-C , 15-O ) :   1.1433 B( 15-O , 16-H ) :   0.6386 

-------
TIMINGS
-------

Total SCF time: 0 days 0 hours 0 min 27 sec 

Total time                  ....      27.569 sec
Sum of individual times     ....      27.381 sec  ( 99.3%)

Fock matrix formation       ....      24.711 sec  ( 89.6%)
  XC integration            ....       4.566 sec  ( 18.5% of F)
    Basis function eval.    ....       1.586 sec  ( 34.7% of XC)
    Density eval.           ....       0.670 sec  ( 14.7% of XC)
    XC-Functional eval.     ....       1.496 sec  ( 32.8% of XC)
    XC-Potential eval.      ....       0.670 sec  ( 14.7% of XC)
Diagonalization             ....       0.002 sec  (  0.0%)
Density matrix formation    ....       0.001 sec  (  0.0%)
Population analysis         ....       0.002 sec  (  0.0%)
Initial guess               ....       0.002 sec  (  0.0%)
Orbital Transformation      ....       0.000 sec  (  0.0%)
Orbital Orthonormalization  ....       0.001 sec  (  0.0%)
DIIS solution               ....       0.000 sec  (  0.0%)
SOSCF solution              ....       0.005 sec  (  0.0%)
Grid generation             ....       2.656 sec  (  9.6%)

-------------------------   --------------------
FINAL SINGLE POINT ENERGY      -492.316754769687
-------------------------   --------------------

                                *** OPTIMIZATION RUN DONE ***

                            ***************************************
                            *     ORCA property calculations      *
                            ***************************************

                                    ---------------------
                                    Active property flags
                                    ---------------------
   (+) Dipole Moment


------------------------------------------------------------------------------
                       ORCA ELECTRIC PROPERTIES CALCULATION
------------------------------------------------------------------------------

Dipole Moment Calculation                       ... on
Quadrupole Moment Calculation                   ... off
Polarizability Calculation                      ... off
GBWName                                         ... gly-gly.gbw
Electron density file                           ... gly-gly.scfp
The origin for moment calculation is the CENTER OF MASS  = (-5.788509, -1.404170  5.142551)

-------------
DIPOLE MOMENT
-------------
                                X             Y             Z
Electronic contribution:      3.70340      -0.39660       6.24449
Nuclear contribution   :     -5.37276       0.84767      -8.68191
                        -----------------------------------------
Total Dipole Moment    :     -1.66936       0.45107      -2.43742
                        -----------------------------------------
Magnitude (a.u.)       :      2.98852
Magnitude (Debye)      :      7.59621



--------------------
Rotational spectrum 
--------------------
 
Rotational constants in cm-1:     0.116031     0.030196     0.026216 
Rotational constants in MHz :  3478.511078   905.250715   785.926663 

 Dipole components along the rotational axes: 
x,y,z [a.u.] :    -2.823108     0.839791    -0.506018 
x,y,z [Debye]:    -7.175771     2.134580    -1.286194 

 

Timings for individual modules:

Sum of individual times         ...      823.244 sec (=  13.721 min)
GTO integral calculation        ...        3.685 sec (=   0.061 min)   0.4 %
SCF iterations                  ...      571.060 sec (=   9.518 min)  69.4 %
SCF Gradient evaluation         ...      246.999 sec (=   4.117 min)  30.0 %
Geometry relaxation             ...        1.500 sec (=   0.025 min)   0.2 %
                             ****ORCA TERMINATED NORMALLY****
TOTAL RUN TIME: 0 days 0 hours 13 minutes 43 seconds 801 msec
