
                                 *****************
                                 * O   R   C   A *
                                 *****************

           --- An Ab Initio, DFT and Semiempirical electronic structure package ---

                  #######################################################
                  #                        -***-                        #
                  #          Department of theory and spectroscopy      #
                  #               Directorship: Frank Neese             #
                  #        Max Planck Institute fuer Kohlenforschung    #
                  #                Kaiser Wilhelm Platz 1               #
                  #                 D-45470 Muelheim/Ruhr               #
                  #                      Germany                        #
                  #                                                     #
                  #                  All rights reserved                #
                  #                        -***-                        #
                  #######################################################


                         Program Version 4.2.0 -  RELEASE  -


 With contributions from (in alphabetic order):
   Daniel Aravena         : Magnetic Suceptibility
   Michael Atanasov       : Ab Initio Ligand Field Theory (pilot matlab implementation)
   Alexander A. Auer      : GIAO ZORA, VPT2
   Ute Becker             : Parallelization
   Giovanni Bistoni       : ED, misc. LED, open-shell LED, HFLED
   Martin Brehm           : Molecular dynamics
   Dmytro Bykov           : SCF Hessian
   Vijay G. Chilkuri      : MRCI spin determinant printing, contributions to CSF-ICE
   Dipayan Datta          : RHF DLPNO-CCSD density
   Achintya Kumar Dutta   : EOM-CC, STEOM-CC
   Dmitry Ganyushin       : Spin-Orbit,Spin-Spin,Magnetic field MRCI
   Miquel Garcia          : C-PCM Hessian, Gaussian charge scheme
   Yang Guo               : DLPNO-NEVPT2, CIM, IAO-localization
   Andreas Hansen         : Spin unrestricted coupled pair/coupled cluster methods
   Benjamin Helmich-Paris : CASSCF linear response (MC-RPA)
   Lee Huntington         : MR-EOM, pCC
   Robert Izsak           : Overlap fitted RIJCOSX, COSX-SCS-MP3, EOM
   Christian Kollmar      : KDIIS, OOCD, Brueckner-CCSD(T), CCSD density
   Simone Kossmann        : Meta GGA functionals, TD-DFT gradient, OOMP2, MP2 Hessian
   Martin Krupicka        : AUTO-CI
   Lucas Lang             : DCDCAS
   Dagmar Lenk            : GEPOL surface, SMD
   Dimitrios Liakos       : Extrapolation schemes; Compound Job, initial MDCI parallelization
   Dimitrios Manganas     : Further ROCIS development; embedding schemes
   Dimitrios Pantazis     : SARC Basis sets
   Taras Petrenko         : DFT Hessian,TD-DFT gradient, ASA, ECA, R-Raman, ABS, FL, XAS/XES, NRVS
   Peter Pinski           : DLPNO-MP2, DLPNO-MP2 Gradient
   Christoph Reimann      : Effective Core Potentials
   Marius Retegan         : Local ZFS, SOC
   Christoph Riplinger    : Optimizer, TS searches, QM/MM, DLPNO-CCSD(T), (RO)-DLPNO pert. Triples
   Tobias Risthaus        : Range-separated hybrids, TD-DFT gradient, RPA, STAB
   Michael Roemelt        : Original ROCIS implementation
   Masaaki Saitow         : Open-shell DLPNO-CCSD energy and density
   Barbara Sandhoefer     : DKH picture change effects
   Avijit Sen             : IP-ROCIS
   Kantharuban Sivalingam : CASSCF convergence, NEVPT2, FIC-MRCI
   Bernardo de Souza      : ESD, SOC TD-DFT
   Georgi Stoychev        : AutoAux, RI-MP2 NMR
   Willem Van den Heuvel  : Paramagnetic NMR
   Boris Wezisla          : Elementary symmetry handling
   Frank Wennmohs         : Technical directorship


 We gratefully acknowledge several colleagues who have allowed us to
 interface, adapt or use parts of their codes:
   Stefan Grimme, W. Hujo, H. Kruse,             : VdW corrections, initial TS optimization,
                  C. Bannwarth                     DFT functionals, gCP, sTDA/sTD-DF
   Ed Valeev, F. Pavosevic, A. Kumar             : LibInt (2-el integral package), F12 methods
   Garnet Chan, S. Sharma, J. Yang, R. Olivares  : DMRG
   Ulf Ekstrom                                   : XCFun DFT Library
   Mihaly Kallay                                 : mrcc  (arbitrary order and MRCC methods)
   Andreas Klamt, Michael Diedenhofen            : otool_cosmo (COSMO solvation model)
   Jiri Pittner, Ondrej Demel                    : Mk-CCSD
   Frank Weinhold                                : gennbo (NPA and NBO analysis)
   Christopher J. Cramer and Donald G. Truhlar   : smd solvation model
   Lars Goerigk                                  : TD-DFT with DH, B97 family of functionals
   V. Asgeirsson, H. Jonsson                     : NEB implementation
   FAccTs GmbH                                   : IRC, NEB, NEB-TS, Multilevel, MM, QM/MM, CI optimization
   S Lehtola, MJT Oliveira, MAL Marques          : LibXC Library


 Your calculation uses the libint2 library for the computation of 2-el integrals
 For citations please refer to: http://libint.valeyev.net

 Your ORCA version has been built with support for libXC version: 4.2.3
 For citations please refer to: https://tddft.org/programs/libxc/

 This ORCA versions uses:
   CBLAS   interface :  Fast vector & matrix operations
   LAPACKE interface :  Fast linear algebra routines
   SCALAPACK package :  Parallel linear algebra routines


XCFun DFT library Copyright 2009-2010 Ulf Ekstrom and contributors.
See http://admol.org/xcfun for more information. This is free soft-
ware; see the source code for copying conditions. There is ABSOLUTELY
NO WARRANTY; not even for MERCHANTABILITY or FITNESS FOR A PARTICULAR
PURPOSE. For details see the documentation. Scientific users of this 
library should cite U. Ekstrom, L. Visscher, R. Bast, A. J. Thorvald-
sen and K. Ruud; J.Chem.Theor.Comp. 2010, DOI: 10.1021/ct100117s
XCFun Version 0.99 
----- Orbital basis set information -----
Your calculation utilizes the basis: 6-31G(d)
   H-He, Li-Ne : W. J. Hehre, R. Ditchfield and J.A. Pople, J. Chem. Phys. 56, 2257 (1972).
                 Note: He and Ne are unpublished basis sets taken from the Gaussian program.
                 Note: Li and B from J. D. Dill and J. A. Pople, J. Chem. Phys. 62, 2921 (1975).
   Na - Ar     : M. M. Francl, W. J. Pietro, W. J. Hehre, J. S. Binkley, M. S. Gordon, 
                 D. J. DeFrees and J. A. Pople, J. Chem. Phys. 77, 3654 (1982).
   K - Zn      : V. A. Rassolov, J. A. Pople, M. A. Ratner, and T. L. Windus, J. Chem. Phys. 109, 1223 (1998).

================================================================================
                                        WARNINGS
                       Please study these warnings very carefully!
================================================================================


WARNING: Geometry Optimization
  ===> : Switching off AutoStart
         For restart on a previous wavefunction, please use MOREAD

INFO   : the flag for use of LIBINT has been found!

================================================================================
                                       INPUT FILE
================================================================================
NAME = sucrose.inp
|  1> # ORCA input file
|  2> # energy: -81.652130307813 gnorm: 0.000857615915 xtb: 6.2.3 (conda-forge)
|  3> ! RKS wB97x 6-31g(d) TightSCF Grid4 Opt
|  4> * xyz 0 1
|  5>  C         -1.3969060973       -1.2758561716       -0.2256029529
|  6>  O         -2.0404538814       -0.5848575743       -1.2443654264
|  7>  C         -2.9633105874        0.3819439086       -0.7152648186
|  8>  C         -2.7728524611        1.7365522917       -1.4045030617
|  9>  O         -1.5551968356        2.3537506826       -1.0995915182
| 10>  H         -0.8197260243        1.7557117008       -1.3256309293
| 11>  H         -3.5584783337        2.4110554571       -1.0574013899
| 12>  H         -2.8748564304        1.5852689982       -2.4871805996
| 13>  C         -2.7431778059        0.4096562070        0.8007854005
| 14>  O         -3.9532673838        0.6850190193        1.4422253132
| 15>  H         -3.8075713792        0.6859241028        2.3956148703
| 16>  C         -2.2012018228       -1.0104517534        1.0680948436
| 17>  O         -1.4545732874       -1.1798026551        2.2325730980
| 18>  H         -0.6326798350       -0.6780238803        2.1403952923
| 19>  H         -3.0505852378       -1.6991418205        1.1361058667
| 20>  H         -1.9730785972        1.1541086771        1.0572205512
| 21>  H         -3.9820985387        0.0257003553       -0.9147429438
| 22>  C         -1.2774295618       -2.7730637291       -0.5600300674
| 23>  O         -0.4346045588       -3.4078039730        0.3663469498
| 24>  H         -0.7351184303       -3.1940720019        1.2614837508
| 25>  H         -2.2797972643       -3.2180526277       -0.5730872657
| 26>  H         -0.8218579699       -2.9007581211       -1.5445058611
| 27>  O         -0.0899981422       -0.7646000217        0.0467272607
| 28>  C          0.7075771766       -0.3934491187       -1.0551080348
| 29>  O          0.8910888815        0.9928283447       -1.0619275566
| 30>  C          1.5428566075        1.4947971318        0.1103945684
| 31>  C          1.5823767810        3.0275935364        0.0287756645
| 32>  H          2.4002018399        3.3729691345        0.6643417046
| 33>  O          0.4240098258        3.6328238021        0.5231191034
| 34>  H         -0.3335240339        3.3922631479       -0.0325698646
| 35>  H          1.7787495305        3.3134939027       -1.0126242378
| 36>  C          2.9413804444        0.8795973550        0.2323571637
| 37>  O          3.5515281707        1.3568987936        1.3995141160
| 38>  H          4.3313919192        0.8077444187        1.5537728204
| 39>  C          2.8113258463       -0.6483709192        0.2661069670
| 40>  O          4.0997907571       -1.2114155698        0.3271429435
| 41>  H          4.0350912061       -2.1146404312       -0.0109365806
| 42>  C          2.0597496601       -1.1251282729       -0.9827292645
| 43>  O          1.9393574833       -2.5171542637       -1.0093849219
| 44>  H          1.2586581119       -2.8079273808       -0.3747780124
| 45>  H          2.6417302549       -0.8502540686       -1.8707626218
| 46>  H          2.2366728059       -0.9400685947        1.1622916078
| 47>  H          3.5353360159        1.1571273241       -0.6543726721
| 48>  H          0.9655849871        1.2148558692        1.0015760253
| 49>  H          0.1898523350       -0.6327836704       -1.9919645360
| 50> *
| 51> 
| 52>                          ****END OF INPUT****
================================================================================

                       *****************************
                       * Geometry Optimization Run *
                       *****************************

Geometry optimization settings:
Update method            Update   .... BFGS
Choice of coordinates    CoordSys .... Z-matrix Internals
Initial Hessian          InHess   .... Almoef's Model

Convergence Tolerances:
Energy Change            TolE     ....  5.0000e-06 Eh
Max. Gradient            TolMAXG  ....  3.0000e-04 Eh/bohr
RMS Gradient             TolRMSG  ....  1.0000e-04 Eh/bohr
Max. Displacement        TolMAXD  ....  4.0000e-03 bohr
RMS Displacement         TolRMSD  ....  2.0000e-03 bohr
Strict Convergence                ....  False
------------------------------------------------------------------------------
                        ORCA OPTIMIZATION COORDINATE SETUP
------------------------------------------------------------------------------

The optimization will be done in new redundant internal coordinates
Making redundant internal coordinates   ...  (new redundants) done
Evaluating the initial hessian          ...  (Almloef) done
Evaluating the coordinates              ...  done
Calculating the B-matrix                .... done
Calculating the G-matrix                .... done
Diagonalizing the G-matrix              .... done
Small eigenvalue found = 5.509e-03
Small eigenvalue found = 5.815e-03
Small eigenvalue found = 1.447e-02
Small eigenvalue found = 2.276e-02
The first mode is                       ....  133
The number of degrees of freedom        ....  129

    -----------------------------------------------------------------
                    Redundant Internal Coordinates


    -----------------------------------------------------------------
         Definition                    Initial Value    Approx d2E/dq
    -----------------------------------------------------------------
      1. B(O   1,C   0)                  1.3891         0.561516   
      2. B(C   2,O   1)                  1.4375         0.470047   
      3. B(C   3,C   2)                  1.5318         0.371168   
      4. B(O   4,C   3)                  1.3988         0.541832   
      5. B(H   5,O   4)                  0.9745         0.492973   
      6. B(H   6,C   3)                  1.0921         0.357357   
      7. B(H   7,C   3)                  1.0979         0.349742   
      8. B(C   8,C   2)                  1.5322         0.370569   
      9. B(O   9,C   8)                  1.3970         0.545406   
     10. B(H  10,O   9)                  0.9645         0.511510   
     11. B(C  11,C   8)                  1.5433         0.355708   
     12. B(C  11,C   0)                  1.5463         0.351886   
     13. B(O  12,C  11)                  1.3936         0.552229   
     14. B(H  13,O  12)                  0.9674         0.506084   
     15. B(H  14,C  11)                  1.0956         0.352748   
     16. B(H  15,C   8)                  1.1014         0.345366   
     17. B(H  16,C   2)                  1.0976         0.350241   
     18. B(C  17,C   0)                  1.5387         0.361760   
     19. B(O  18,C  17)                  1.4041         0.531400   
     20. B(H  19,O  18)                  0.9681         0.504672   
     21. B(H  20,C  17)                  1.0968         0.351242   
     22. B(H  21,C  17)                  1.0923         0.357115   
     23. B(O  22,C   0)                  1.4295         0.483959   
     24. B(C  23,O  22)                  1.4099         0.520078   
     25. B(O  24,C  23)                  1.3984         0.542617   
     26. B(C  25,O  24)                  1.4322         0.479286   
     27. B(C  26,C  25)                  1.5355         0.366134   
     28. B(H  27,C  26)                  1.0918         0.357703   
     29. B(O  28,C  26)                  1.3973         0.544757   
     30. B(H  29,O  28)                  0.9698         0.501565   
     31. B(H  29,O   4)                  1.9260         0.014954   
     32. B(H  30,C  26)                  1.0976         0.350133   
     33. B(C  31,C  25)                  1.5327         0.369868   
     34. B(O  32,C  31)                  1.4008         0.537751   
     35. B(H  33,O  32)                  0.9662         0.508236   
     36. B(C  34,C  31)                  1.5339         0.368309   
     37. B(O  35,C  34)                  1.4074         0.524870   
     38. B(H  36,O  35)                  0.9666         0.507517   
     39. B(C  37,C  34)                  1.5335         0.368743   
     40. B(C  37,C  23)                  1.5391         0.361234   
     41. B(O  38,C  37)                  1.3975         0.544436   
     42. B(H  39,O  38)                  0.9750         0.492078   
     43. B(H  40,C  37)                  1.0967         0.351280   
     44. B(H  41,C  34)                  1.1038         0.342250   
     45. B(H  42,C  31)                  1.1028         0.343600   
     46. B(H  43,C  25)                  1.0981         0.349548   
     47. B(H  44,C  23)                  1.0968         0.351187   
     48. A(O   1,C   0,O  22)          112.6663         0.402788   
     49. A(O   1,C   0,C  17)          111.1370         0.385223   
     50. A(C  17,C   0,O  22)          108.5664         0.375422   
     51. A(O   1,C   0,C  11)          106.6932         0.383373   
     52. A(C  11,C   0,C  17)          112.9065         0.357701   
     53. A(C  11,C   0,O  22)          104.7594         0.373634   
     54. A(C   0,O   1,C   2)          111.2265         0.400723   
     55. A(C   8,C   2,H  16)          108.6063         0.322418   
     56. A(O   1,C   2,H  16)          108.1030         0.333298   
     57. A(C   3,C   2,C   8)          114.2905         0.362450   
     58. A(O   1,C   2,C   8)          106.5066         0.375092   
     59. A(C   3,C   2,H  16)          108.7038         0.322503   
     60. A(O   1,C   2,C   3)          110.4469         0.375196   
     61. A(C   2,C   3,H   7)          108.0776         0.322428   
     62. A(H   6,C   3,H   7)          109.3710         0.289164   
     63. A(C   2,C   3,O   4)          113.6009         0.384552   
     64. A(C   2,C   3,H   6)          108.2846         0.323568   
     65. A(O   4,C   3,H   6)          106.5245         0.342435   
     66. A(O   4,C   3,H   7)          110.8930         0.341203   
     67. A(C   3,O   4,H   5)          109.6115         0.358402   
     68. A(O   9,C   8,C  11)          113.9559         0.382156   
     69. A(C  11,C   8,H  15)          109.6387         0.319533   
     70. A(O   9,C   8,H  15)          111.4402         0.340860   
     71. A(C   2,C   8,H  15)          110.0635         0.321678   
     72. A(C   2,C   8,O   9)          109.4773         0.384884   
     73. A(C   2,C   8,C  11)          101.8404         0.359829   
     74. A(C   8,O   9,H  10)          108.8577         0.361067   
     75. A(C   8,C  11,O  12)          116.4030         0.382982   
     76. A(O  12,C  11,H  14)          106.6838         0.342781   
     77. A(C   8,C  11,H  14)          108.4756         0.320639   
     78. A(C   0,C  11,H  14)          110.3219         0.320073   
     79. A(C   0,C  11,C   8)          101.2848         0.356677   
     80. A(C   0,C  11,O  12)          113.5510         0.382264   
     81. A(C  11,O  12,H  13)          108.2120         0.361175   
     82. A(O  18,C  17,H  21)          106.9449         0.341284   
     83. A(H  20,C  17,H  21)          108.8458         0.289327   
     84. A(C   0,C  17,H  21)          110.0004         0.322174   
     85. A(O  18,C  17,H  20)          111.9031         0.340339   
     86. A(C   0,C  17,H  20)          109.0502         0.321300   
     87. A(C   0,C  17,O  18)          110.0646         0.381550   
     88. A(C  17,O  18,H  19)          108.8993         0.358647   
     89. A(C   0,O  22,C  23)          117.5440         0.397390   
     90. A(O  24,C  23,C  37)          110.8672         0.382839   
     91. A(O  22,C  23,C  37)          109.5772         0.380031   
     92. A(O  22,C  23,O  24)          109.8163         0.405480   
     93. A(O  24,C  23,H  44)          105.9081         0.341521   
     94. A(O  22,C  23,H  44)          110.0627         0.339108   
     95. A(C  37,C  23,H  44)          110.5557         0.321215   
     96. A(C  23,O  24,C  25)          113.7777         0.399683   
     97. A(C  26,C  25,C  31)          112.4219         0.361489   
     98. A(O  24,C  25,C  31)          109.8587         0.376232   
     99. A(O  24,C  25,C  26)          108.5472         0.375573   
    100. A(C  31,C  25,H  43)          108.2264         0.322213   
    101. A(O  24,C  25,H  43)          109.6167         0.334267   
    102. A(C  26,C  25,H  43)          108.1291         0.321678   
    103. A(O  28,C  26,H  30)          111.7863         0.341574   
    104. A(H  27,C  26,H  30)          109.6266         0.289258   
    105. A(C  25,C  26,H  30)          108.3638         0.321766   
    106. A(H  27,C  26,O  28)          106.1409         0.342800   
    107. A(C  25,C  26,O  28)          113.0939         0.383999   
    108. A(C  25,C  26,H  27)          107.7049         0.322896   
    109. A(C  26,O  28,H  29)          109.7180         0.359787   
    110. A(O  32,C  31,C  34)          110.9782         0.383531   
    111. A(C  25,C  31,C  34)          108.9184         0.361855   
    112. A(C  25,C  31,O  32)          109.0846         0.383813   
    113. A(C  34,C  31,H  42)          108.3041         0.321087   
    114. A(O  32,C  31,H  42)          110.4638         0.339764   
    115. A(C  25,C  31,H  42)          109.0535         0.321309   
    116. A(C  31,O  32,H  33)          106.9132         0.359804   
    117. A(C  31,C  34,C  37)          109.4708         0.361667   
    118. A(C  31,C  34,O  35)          108.7745         0.381919   
    119. A(C  37,C  34,H  41)          108.8964         0.320942   
    120. A(O  35,C  34,H  41)          109.6129         0.338170   
    121. A(C  31,C  34,H  41)          108.9805         0.320880   
    122. A(O  35,C  34,C  37)          111.0761         0.381997   
    123. A(C  34,O  35,H  36)          107.3001         0.358235   
    124. A(O  38,C  37,H  40)          106.2554         0.341728   
    125. A(C  34,C  37,H  40)          108.7473         0.322313   
    126. A(C  23,C  37,H  40)          107.9966         0.321229   
    127. A(C  34,C  37,O  38)          111.5571         0.384434   
    128. A(C  23,C  37,O  38)          113.3873         0.383062   
    129. A(C  23,C  37,C  34)          108.7272         0.360472   
    130. A(C  37,O  38,H  39)          110.1693         0.358583   
    131. D(C   2,O   1,C   0,O  22)    -99.1478         0.025189   
    132. D(C   2,O   1,C   0,C  17)    138.7522         0.025189   
    133. D(C   2,O   1,C   0,C  11)     15.2751         0.025189   
    134. D(C   8,C   2,O   1,C   0)      7.4874         0.017416   
    135. D(H  16,C   2,O   1,C   0)   -109.0629         0.017416   
    136. D(C   3,C   2,O   1,C   0)    132.1247         0.017416   
    137. D(H   7,C   3,C   2,H  16)    -62.9357         0.011009   
    138. D(H   6,C   3,C   2,C   8)    -66.0470         0.011009   
    139. D(H   7,C   3,C   2,O   1)     55.5105         0.011009   
    140. D(H   6,C   3,C   2,H  16)     55.4441         0.011009   
    141. D(O   4,C   3,C   2,O   1)    -67.9938         0.011009   
    142. D(O   4,C   3,C   2,H  16)    173.5600         0.011009   
    143. D(O   4,C   3,C   2,C   8)     52.0689         0.011009   
    144. D(H   7,C   3,C   2,C   8)    175.5731         0.011009   
    145. D(H   6,C   3,C   2,O   1)    173.8903         0.011009   
    146. D(H   5,O   4,C   3,H   7)    -65.6490         0.025371   
    147. D(H   5,O   4,C   3,H   6)    175.4320         0.025371   
    148. D(H   5,O   4,C   3,C   2)     56.3050         0.025371   
    149. D(H  15,C   8,C   2,C   3)    -32.6268         0.010975   
    150. D(H  15,C   8,C   2,O   1)     89.6146         0.010975   
    151. D(H  15,C   8,C   2,H  16)   -154.1717         0.010975   
    152. D(C  11,C   8,C   2,H  16)     89.5872         0.010975   
    153. D(O   9,C   8,C   2,O   1)   -147.5698         0.010975   
    154. D(O   9,C   8,C   2,C   3)     90.1888         0.010975   
    155. D(C  11,C   8,C   2,O   1)    -26.6265         0.010975   
    156. D(C  11,C   8,C   2,C   3)   -148.8679         0.010975   
    157. D(O   9,C   8,C   2,H  16)    -31.3560         0.010975   
    158. D(H  10,O   9,C   8,C   2)    179.0747         0.023688   
    159. D(H  10,O   9,C   8,C  11)     65.7903         0.023688   
    160. D(H  10,O   9,C   8,H  15)    -58.9315         0.023688   
    161. D(C   8,C  11,C   0,O   1)    -31.1773         0.009968   
    162. D(H  14,C  11,C   8,H  15)    161.2731         0.010169   
    163. D(H  14,C  11,C   8,C   2)    -82.1768         0.010169   
    164. D(O  12,C  11,C   8,H  15)     41.0198         0.010169   
    165. D(O  12,C  11,C   8,O   9)    -84.6588         0.010169   
    166. D(C   0,C  11,C   8,H  15)    -82.6194         0.010169   
    167. D(C   0,C  11,C   8,O   9)    151.7020         0.010169   
    168. D(C   0,C  11,C   8,C   2)     33.9307         0.010169   
    169. D(H  14,C  11,C   0,O  22)   -156.7644         0.009968   
    170. D(H  14,C  11,C   0,C  17)    -38.8093         0.009968   
    171. D(H  14,C  11,C   0,O   1)     83.5625         0.009968   
    172. D(O  12,C  11,C   8,C   2)    157.5698         0.010169   
    173. D(O  12,C  11,C   0,O  22)    -37.0692         0.009968   
    174. D(C   8,C  11,C   0,C  17)   -153.5491         0.009968   
    175. D(O  12,C  11,C   0,O   1)   -156.7423         0.009968   
    176. D(H  14,C  11,C   8,O   9)     35.5945         0.010169   
    177. D(C   8,C  11,C   0,O  22)     88.4959         0.009968   
    178. D(O  12,C  11,C   0,C  17)     80.8859         0.009968   
    179. D(H  13,O  12,C  11,H  14)    171.9358         0.024317   
    180. D(H  13,O  12,C  11,C   8)    -66.8560         0.024317   
    181. D(H  13,O  12,C  11,C   0)     50.1913         0.024317   
    182. D(H  21,C  17,C   0,C  11)    172.3953         0.010492   
    183. D(H  21,C  17,C   0,O  22)    -71.9031         0.010492   
    184. D(H  21,C  17,C   0,O   1)     52.5477         0.010492   
    185. D(H  20,C  17,C   0,O  22)    168.7986         0.010492   
    186. D(H  20,C  17,C   0,C  11)     53.0971         0.010492   
    187. D(H  20,C  17,C   0,O   1)    -66.7505         0.010492   
    188. D(O  18,C  17,C   0,O  22)     45.6867         0.010492   
    189. D(O  18,C  17,C   0,C  11)    -70.0148         0.010492   
    190. D(O  18,C  17,C   0,O   1)    170.1376         0.010492   
    191. D(H  19,O  18,C  17,H  20)    -69.7418         0.022430   
    192. D(H  19,O  18,C  17,H  21)    171.1505         0.022430   
    193. D(H  19,O  18,C  17,C   0)     51.6826         0.022430   
    194. D(C  23,O  22,C   0,C  17)     82.8324         0.018483   
    195. D(C  23,O  22,C   0,C  11)   -156.2972         0.018483   
    196. D(C  23,O  22,C   0,O   1)    -40.7068         0.018483   
    197. D(H  44,C  23,O  22,C   0)     -3.8949         0.021445   
    198. D(C  37,C  23,O  22,C   0)   -125.6721         0.021445   
    199. D(O  24,C  23,O  22,C   0)    112.3221         0.021445   
    200. D(C  25,O  24,C  23,H  44)    179.0981         0.023434   
    201. D(C  25,O  24,C  23,C  37)    -60.9431         0.023434   
    202. D(C  25,O  24,C  23,O  22)     60.2909         0.023434   
    203. D(H  43,C  25,O  24,C  23)    -57.6670         0.018120   
    204. D(C  31,C  25,O  24,C  23)     61.1339         0.018120   
    205. D(C  26,C  25,O  24,C  23)   -175.5720         0.018120   
    206. D(H  30,C  26,C  25,H  43)   -157.3520         0.010730   
    207. D(H  30,C  26,C  25,C  31)     83.2337         0.010730   
    208. D(H  30,C  26,C  25,O  24)    -38.5054         0.010730   
    209. D(O  28,C  26,C  25,H  43)    -32.8331         0.010730   
    210. D(O  28,C  26,C  25,C  31)   -152.2474         0.010730   
    211. D(O  28,C  26,C  25,O  24)     86.0135         0.010730   
    212. D(H  27,C  26,C  25,H  43)     84.1271         0.010730   
    213. D(H  27,C  26,C  25,C  31)    -35.2872         0.010730   
    214. D(H  27,C  26,C  25,O  24)   -157.0263         0.010730   
    215. D(H  29,O  28,C  26,H  30)     57.9009         0.023629   
    216. D(H  29,O  28,C  26,H  27)    177.3890         0.023629   
    217. D(H  29,O  28,C  26,C  25)    -64.7334         0.023629   
    218. D(H  42,C  31,C  25,H  43)   -179.7000         0.010936   
    219. D(H  42,C  31,C  25,O  24)     60.6473         0.010936   
    220. D(C  34,C  31,C  25,H  43)     62.2912         0.010936   
    221. D(C  34,C  31,C  25,C  26)   -178.3512         0.010936   
    222. D(C  34,C  31,C  25,O  24)    -57.3615         0.010936   
    223. D(O  32,C  31,C  25,H  43)    -58.9772         0.010936   
    224. D(H  42,C  31,C  25,C  26)    -60.3424         0.010936   
    225. D(O  32,C  31,C  25,C  26)     60.3803         0.010936   
    226. D(O  32,C  31,C  25,O  24)   -178.6299         0.010936   
    227. D(H  33,O  32,C  31,H  42)    -72.8025         0.022995   
    228. D(H  33,O  32,C  31,C  34)     47.3360         0.022995   
    229. D(H  33,O  32,C  31,C  25)    167.3421         0.022995   
    230. D(H  41,C  34,C  31,H  42)    178.7844         0.010850   
    231. D(H  41,C  34,C  31,C  25)    -62.7351         0.010850   
    232. D(C  37,C  34,C  31,H  42)    -62.2126         0.010850   
    233. D(C  37,C  34,C  31,O  32)    176.3728         0.010850   
    234. D(C  37,C  34,C  31,C  25)     56.2679         0.010850   
    235. D(O  35,C  34,C  31,H  42)     59.3236         0.010850   
    236. D(H  41,C  34,C  31,O  32)     57.3699         0.010850   
    237. D(O  35,C  34,C  31,O  32)    -62.0910         0.010850   
    238. D(O  35,C  34,C  31,C  25)    177.8041         0.010850   
    239. D(H  36,O  35,C  34,H  41)     83.7679         0.021858   
    240. D(H  36,O  35,C  34,C  37)    -36.6154         0.021858   
    241. D(H  36,O  35,C  34,C  31)   -157.1664         0.021858   
    242. D(O  38,C  37,C  34,H  41)    -62.1118         0.010874   
    243. D(O  38,C  37,C  34,O  35)     58.6948         0.010874   
    244. D(O  38,C  37,C  34,C  31)    178.8333         0.010874   
    245. D(C  23,C  37,C  34,O  35)   -175.5314         0.010874   
    246. D(C  23,C  37,C  34,C  31)    -55.3929         0.010874   
    247. D(H  40,C  37,C  23,H  44)     56.2363         0.010464   
    248. D(H  40,C  37,C  23,O  24)    -60.9080         0.010464   
    249. D(H  40,C  37,C  23,O  22)    177.7172         0.010464   
    250. D(O  38,C  37,C  23,H  44)    -61.2254         0.010464   
    251. D(O  38,C  37,C  23,O  24)   -178.3697         0.010464   
    252. D(C  23,C  37,C  34,H  41)     63.6620         0.010874   
    253. D(O  38,C  37,C  23,O  22)     60.2556         0.010464   
    254. D(C  34,C  37,C  23,H  44)    174.0726         0.010464   
    255. D(C  34,C  37,C  23,O  24)     56.9283         0.010464   
    256. D(H  40,C  37,C  34,C  31)     61.9665         0.010874   
    257. D(C  34,C  37,C  23,O  22)    -64.4465         0.010464   
    258. D(H  40,C  37,C  34,H  41)   -178.9786         0.010874   
    259. D(H  40,C  37,C  34,O  35)    -58.1720         0.010874   
    260. D(H  39,O  38,C  37,H  40)   -166.3528         0.023600   
    261. D(H  39,O  38,C  37,C  34)     75.2783         0.023600   
    262. D(H  39,O  38,C  37,C  23)    -47.8806         0.023600   
    -----------------------------------------------------------------

Number of atoms                         .... 45
Number of degrees of freedom            .... 262

         *************************************************************
         *                GEOMETRY OPTIMIZATION CYCLE   1            *
         *************************************************************
---------------------------------
CARTESIAN COORDINATES (ANGSTROEM)
---------------------------------
  C     -1.396906   -1.275856   -0.225603
  O     -2.040454   -0.584858   -1.244365
  C     -2.963311    0.381944   -0.715265
  C     -2.772852    1.736552   -1.404503
  O     -1.555197    2.353751   -1.099592
  H     -0.819726    1.755712   -1.325631
  H     -3.558478    2.411055   -1.057401
  H     -2.874856    1.585269   -2.487181
  C     -2.743178    0.409656    0.800785
  O     -3.953267    0.685019    1.442225
  H     -3.807571    0.685924    2.395615
  C     -2.201202   -1.010452    1.068095
  O     -1.454573   -1.179803    2.232573
  H     -0.632680   -0.678024    2.140395
  H     -3.050585   -1.699142    1.136106
  H     -1.973079    1.154109    1.057221
  H     -3.982099    0.025700   -0.914743
  C     -1.277430   -2.773064   -0.560030
  O     -0.434605   -3.407804    0.366347
  H     -0.735118   -3.194072    1.261484
  H     -2.279797   -3.218053   -0.573087
  H     -0.821858   -2.900758   -1.544506
  O     -0.089998   -0.764600    0.046727
  C      0.707577   -0.393449   -1.055108
  O      0.891089    0.992828   -1.061928
  C      1.542857    1.494797    0.110395
  C      1.582377    3.027594    0.028776
  H      2.400202    3.372969    0.664342
  O      0.424010    3.632824    0.523119
  H     -0.333524    3.392263   -0.032570
  H      1.778750    3.313494   -1.012624
  C      2.941380    0.879597    0.232357
  O      3.551528    1.356899    1.399514
  H      4.331392    0.807744    1.553773
  C      2.811326   -0.648371    0.266107
  O      4.099791   -1.211416    0.327143
  H      4.035091   -2.114640   -0.010937
  C      2.059750   -1.125128   -0.982729
  O      1.939357   -2.517154   -1.009385
  H      1.258658   -2.807927   -0.374778
  H      2.641730   -0.850254   -1.870763
  H      2.236673   -0.940069    1.162292
  H      3.535336    1.157127   -0.654373
  H      0.965585    1.214856    1.001576
  H      0.189852   -0.632784   -1.991965

----------------------------
CARTESIAN COORDINATES (A.U.)
----------------------------
  NO LB      ZA    FRAG     MASS         X           Y           Z
   0 C     6.0000    0    12.011   -2.639770   -2.411019   -0.426328
   1 O     8.0000    0    15.999   -3.855899   -1.105221   -2.351510
   2 C     6.0000    0    12.011   -5.599845    0.721769   -1.351655
   3 C     6.0000    0    12.011   -5.239932    3.281608   -2.654126
   4 O     8.0000    0    15.999   -2.938896    4.447944   -2.077927
   5 H     1.0000    0     1.008   -1.549058    3.317814   -2.505079
   6 H     1.0000    0     1.008   -6.724550    4.556235   -1.998199
   7 H     1.0000    0     1.008   -5.432691    2.995724   -4.700090
   8 C     6.0000    0    12.011   -5.183855    0.774138    1.513265
   9 O     8.0000    0    15.999   -7.470593    1.294498    2.725411
  10 H     1.0000    0     1.008   -7.195267    1.296209    4.527056
  11 C     6.0000    0    12.011   -4.159669   -1.909477    2.018407
  12 O     8.0000    0    15.999   -2.748745   -2.229504    4.218952
  13 H     1.0000    0     1.008   -1.195592   -1.281279    4.044761
  14 H     1.0000    0     1.008   -5.764771   -3.210913    2.146929
  15 H     1.0000    0     1.008   -3.728578    2.180949    1.997857
  16 H     1.0000    0     1.008   -7.525076    0.048567   -1.728614
  17 C     6.0000    0    12.011   -2.413992   -5.240331   -1.058303
  18 O     8.0000    0    15.999   -0.821284   -6.439816    0.692295
  19 H     1.0000    0     1.008   -1.389173   -6.035921    2.383859
  20 H     1.0000    0     1.008   -4.308192   -6.081238   -1.082978
  21 H     1.0000    0     1.008   -1.553086   -5.481638   -2.918693
  22 O     8.0000    0    15.999   -0.170072   -1.444885    0.088302
  23 C     6.0000    0    12.011    1.337127   -0.743511   -1.993865
  24 O     8.0000    0    15.999    1.683914    1.876174   -2.006752
  25 C     6.0000    0    12.011    2.915576    2.824757    0.208616
  26 C     6.0000    0    12.011    2.990259    5.721323    0.054378
  27 H     1.0000    0     1.008    4.535724    6.373988    1.255424
  28 O     8.0000    0    15.999    0.801262    6.865042    0.988552
  29 H     1.0000    0     1.008   -0.630269    6.410448   -0.061548
  30 H     1.0000    0     1.008    3.361349    6.261596   -1.913582
  31 C     6.0000    0    12.011    5.558403    1.662198    0.439091
  32 O     8.0000    0    15.999    6.711416    2.564167    2.644698
  33 H     1.0000    0     1.008    8.185145    1.526416    2.936205
  34 C     6.0000    0    12.011    5.312636   -1.225243    0.502869
  35 O     8.0000    0    15.999    7.747482   -2.289244    0.618211
  36 H     1.0000    0     1.008    7.625217   -3.996091   -0.020667
  37 C     6.0000    0    12.011    3.892363   -2.126184   -1.857089
  38 O     8.0000    0    15.999    3.664855   -4.756732   -1.907461
  39 H     1.0000    0     1.008    2.378519   -5.306214   -0.708228
  40 H     1.0000    0     1.008    4.992147   -1.606747   -3.535229
  41 H     1.0000    0     1.008    4.226699   -1.776472    2.196413
  42 H     1.0000    0     1.008    6.680817    2.186654   -1.236585
  43 H     1.0000    0     1.008    1.824691    2.295745    1.892704
  44 H     1.0000    0     1.008    0.358769   -1.195788   -3.764267

--------------------------------
INTERNAL COORDINATES (ANGSTROEM)
--------------------------------
 C      0   0   0     0.000000000000     0.00000000     0.00000000
 O      1   0   0     1.389067957050     0.00000000     0.00000000
 C      2   1   0     1.437468977168   111.22653296     0.00000000
 C      3   2   1     1.531759617300   110.44691748   132.12467239
 O      4   3   2     1.398781657515   113.60090721   292.00618105
 H      5   4   3     0.974505902187   109.61152860    56.30503039
 H      4   3   2     1.092081545673   108.28464938   173.89029823
 H      4   3   2     1.097944486629   108.07756695    55.51045851
 C      3   2   1     1.532199295068   106.50661232     7.48741823
 O      9   3   2     1.396991992298   109.47734264   212.43021128
 H     10   9   3     0.964458289673   108.85771176   179.07474925
 C      9   3   2     1.543340184087   101.84044837   333.37349591
 O     12   9   3     1.393608087932   116.40300195   157.56984229
 H     13  12   9     0.967361118612   108.21197713   293.14404744
 H     12   9   3     1.095614755953   108.47557552   277.82315977
 H      9   3   2     1.101372442906   110.06348133    89.61459074
 H      3   2   1     1.097556322662   108.10303033   250.93707589
 C      1   2   3     1.538748389986   111.13703548   138.75222582
 O     18   1   2     1.404073908633   110.06463919   170.13762003
 H     19  18   1     0.968121807904   108.89926958    51.68259680
 H     18   1   2     1.096780115301   109.05016229   293.24950049
 H     18   1   2     1.092265499536   110.00035623    52.54772866
 O      1   2   3     1.429529642629   112.66626518   260.85217160
 C     23   1   2     1.409936310748   117.54398552   319.29317866
 O     24  23   1     1.398387734945   109.81631151   112.32205144
 C     25  24  23     1.432170728874   113.77774179    60.29089448
 C     26  25  24     1.535476573427   108.54717565   184.42798057
 H     27  26  25     1.091817897846   107.70492747   202.97367418
 O     27  26  25     1.397316396884   113.09392016    86.01349292
 H     29  27  26     0.969802663483   109.71803161   295.26655259
 H     27  26  25     1.097640666478   108.36382888   321.49459099
 C     26  25  24     1.532714768770   109.85866576    61.13392406
 O     32  26  25     1.400839841845   109.08459003   181.37005874
 H     33  32  26     0.966205848450   106.91321661   167.34207132
 C     32  26  25     1.533864496842   108.91842383   302.63845965
 O     35  32  26     1.407439695106   108.77447028   177.80406542
 H     36  35  32     0.966591406317   107.30014771   202.83360776
 C     35  32  26     1.533543697153   109.47084160    56.26786053
 O     38  35  32     1.397476711566   111.55705986   178.83332885
 H     39  38  35     0.975000804839   110.16934750    75.27834360
 H     38  35  32     1.096749964482   108.74725304    61.96653132
 H     35  32  26     1.103839010517   108.98048950   297.26491748
 H     32  26  25     1.102767385427   109.05351386    60.64731214
 H     26  25  24     1.098095634882   109.61669004   302.33302990
 H     24  23   1     1.096822749166   110.06272783   356.10508647

---------------------------
INTERNAL COORDINATES (A.U.)
---------------------------
 C      0   0   0     0.000000000000     0.00000000     0.00000000
 O      1   0   0     2.624958020230     0.00000000     0.00000000
 C      2   1   0     2.716422692856   111.22653296     0.00000000
 C      3   2   1     2.894606179696   110.44691748   132.12467239
 O      4   3   2     2.643314253856   113.60090721   292.00618105
 H      5   4   3     1.841549271023   109.61152860    56.30503039
 H      4   3   2     2.063735037231   108.28464938   173.89029823
 H      4   3   2     2.074814389977   108.07756695    55.51045851
 C      3   2   1     2.895437050266   106.50661232     7.48741823
 O      9   3   2     2.639932276724   109.47734264   212.43021128
 H     10   9   3     1.822562035073   108.85771176   179.07474925
 C      9   3   2     2.916490279401   101.84044837   333.37349591
 O     12   9   3     2.633537624210   116.40300195   157.56984229
 H     13  12   9     1.828047586780   108.21197713   293.14404744
 H     12   9   3     2.070411837035   108.47557552   277.82315977
 H      9   3   2     2.081292288540   110.06348133    89.61459074
 H      3   2   1     2.074080866385   108.10303033   250.93707589
 C      1   2   3     2.907813046085   111.13703548   138.75222582
 O     18   1   2     2.653315159101   110.06463919   170.13762003
 H     19  18   1     1.829485081215   108.89926958    51.68259680
 H     18   1   2     2.072614047050   109.05016229   293.24950049
 H     18   1   2     2.064082659653   110.00035623    52.54772866
 O      1   2   3     2.701419524890   112.66626518   260.85217160
 C     23   1   2     2.664393493585   117.54398552   319.29317866
 O     24  23   1     2.642569848080   109.81631151   112.32205144
 C     25  24  23     2.706410454590   113.77774179    60.29089448
 C     26  25  24     2.901630208828   108.54717565   184.42798057
 H     27  26  25     2.063236815042   107.70492747   202.97367418
 O     27  26  25     2.640545312549   113.09392016    86.01349292
 H     29  27  26     1.832661437930   109.71803161   295.26655259
 H     27  26  25     2.074240253099   108.36382888   321.49459099
 C     26  25  24     2.896411154391   109.85866576    61.13392406
 O     32  26  25     2.647203658573   109.08459003   181.37005874
 H     33  32  26     1.825864442564   106.91321661   167.34207132
 C     32  26  25     2.898583825576   108.91842383   302.63845965
 O     35  32  26     2.659675573760   108.77447028   177.80406542
 H     36  35  32     1.826593041341   107.30014771   202.83360776
 C     35  32  26     2.897977602020   109.47084160    56.26786053
 O     38  35  32     2.640848263392   111.55705986   178.83332885
 H     39  38  35     1.842484501499   110.16934750    75.27834360
 H     38  35  32     2.072557070258   108.74725304    61.96653132
 H     35  32  26     2.085953425816   108.98048950   297.26491748
 H     32  26  25     2.083928347878   109.05351386    60.64731214
 H     26  25  24     2.075100018782   109.61669004   302.33302990
 H     24  23   1     2.072694613378   110.06272783   356.10508647

---------------------
BASIS SET INFORMATION
---------------------
There are 3 groups of distinct atoms

 Group   1 Type C   : 10s4p1d contracted to 3s2p1d pattern {631/31/1}
 Group   2 Type O   : 10s4p1d contracted to 3s2p1d pattern {631/31/1}
 Group   3 Type H   : 4s contracted to 2s pattern {31}

Atom   0C    basis set group =>   1
Atom   1O    basis set group =>   2
Atom   2C    basis set group =>   1
Atom   3C    basis set group =>   1
Atom   4O    basis set group =>   2
Atom   5H    basis set group =>   3
Atom   6H    basis set group =>   3
Atom   7H    basis set group =>   3
Atom   8C    basis set group =>   1
Atom   9O    basis set group =>   2
Atom  10H    basis set group =>   3
Atom  11C    basis set group =>   1
Atom  12O    basis set group =>   2
Atom  13H    basis set group =>   3
Atom  14H    basis set group =>   3
Atom  15H    basis set group =>   3
Atom  16H    basis set group =>   3
Atom  17C    basis set group =>   1
Atom  18O    basis set group =>   2
Atom  19H    basis set group =>   3
Atom  20H    basis set group =>   3
Atom  21H    basis set group =>   3
Atom  22O    basis set group =>   2
Atom  23C    basis set group =>   1
Atom  24O    basis set group =>   2
Atom  25C    basis set group =>   1
Atom  26C    basis set group =>   1
Atom  27H    basis set group =>   3
Atom  28O    basis set group =>   2
Atom  29H    basis set group =>   3
Atom  30H    basis set group =>   3
Atom  31C    basis set group =>   1
Atom  32O    basis set group =>   2
Atom  33H    basis set group =>   3
Atom  34C    basis set group =>   1
Atom  35O    basis set group =>   2
Atom  36H    basis set group =>   3
Atom  37C    basis set group =>   1
Atom  38O    basis set group =>   2
Atom  39H    basis set group =>   3
Atom  40H    basis set group =>   3
Atom  41H    basis set group =>   3
Atom  42H    basis set group =>   3
Atom  43H    basis set group =>   3
Atom  44H    basis set group =>   3
------------------------------------------------------------------------------
                           ORCA GTO INTEGRAL CALCULATION
------------------------------------------------------------------------------

                         BASIS SET STATISTICS AND STARTUP INFO

 # of primitive gaussian shells          ...  433
 # of primitive gaussian functions       ...  709
 # of contracted shells                  ...  182
 # of contracted basis functions         ...  366
 Highest angular momentum                ...    2
 Maximum contraction depth               ...    6
 Integral package used                   ... LIBINT
 Integral threshhold            Thresh   ...  2.500e-11
 Primitive cut-off              TCut     ...  2.500e-12


------------------------------ INTEGRAL EVALUATION ----------------------------


 * One electron integrals 
 Pre-screening matrix                    ... done
 Shell pair data                         ... done (   0.005 sec)

-------------------------------------------------------------------------------
                                 ORCA SCF
-------------------------------------------------------------------------------

------------
SCF SETTINGS
------------
Hamiltonian:
 Density Functional     Method          .... DFT(GTOs)
 Exchange Functional    Exchange        .... WB97X
 Correlation Functional Correlation     .... WB97X
 Gradients option       PostSCFGGA      .... off
 Hybrid DFT is turned on
   Fraction HF Exchange ScalHFX         ....  0.157706
   Scaling of DF-GGA-X  ScalDFX         ....  0.000000
   Scaling of DF-GGA-C  ScalDFC         ....  1.000000
   Scaling of DF-LDA-C  ScalLDAC        ....  1.000000
   Perturbative correction              ....  0.000000
   Density functional embedding theory  .... OFF
 Long-range corrected/Screened/Range-Separated Hybrid DFT is turned on
   Amount of maximum screened exact exchange              ....  0.842294
   Range separation parameter mu (erf(mu*r12)/r12)        ....  0.300000


General Settings:
 Integral files         IntName         .... sucrose
 Hartree-Fock type      HFTyp           .... RHF
 Total Charge           Charge          ....    0
 Multiplicity           Mult            ....    1
 Number of Electrons    NEL             ....  182
 Basis Dimension        Dim             ....  366
 Nuclear Repulsion      ENuc            ....   2454.8726844654 Eh

Convergence Acceleration:
 DIIS                   CNVDIIS         .... on
   Start iteration      DIISMaxIt       ....    12
   Startup error        DIISStart       ....  0.200000
   # of expansion vecs  DIISMaxEq       ....     5
   Bias factor          DIISBfac        ....   1.050
   Max. coefficient     DIISMaxC        ....  10.000
 Newton-Raphson         CNVNR           .... off
 SOSCF                  CNVSOSCF        .... on
   Start iteration      SOSCFMaxIt      ....   150
   Startup grad/error   SOSCFStart      ....  0.003300
 Level Shifting         CNVShift        .... on
   Level shift para.    LevelShift      ....    0.2500
   Turn off err/grad.   ShiftErr        ....    0.0010
 Zerner damping         CNVZerner       .... off
 Static damping         CNVDamp         .... on
   Fraction old density DampFac         ....    0.7000
   Max. Damping (<1)    DampMax         ....    0.9800
   Min. Damping (>=0)   DampMin         ....    0.0000
   Turn off err/grad.   DampErr         ....    0.1000
 Fernandez-Rico         CNVRico         .... off

SCF Procedure:
 Maximum # iterations   MaxIter         ....   125
 SCF integral mode      SCFMode         .... Direct
   Integral package                     .... LIBINT
 Reset frequency        DirectResetFreq ....    20
 Integral Threshold     Thresh          ....  2.500e-11 Eh
 Primitive CutOff       TCut            ....  2.500e-12 Eh

Convergence Tolerance:
 Convergence Check Mode ConvCheckMode   .... Total+1el-Energy
 Convergence forced     ConvForced      .... 0
 Energy Change          TolE            ....  1.000e-08 Eh
 1-El. energy change                    ....  1.000e-05 Eh
 Orbital Gradient       TolG            ....  1.000e-05
 Orbital Rotation angle TolX            ....  1.000e-05
 DIIS Error             TolErr          ....  5.000e-07


Diagonalization of the overlap matrix:
Smallest eigenvalue                        ... 1.706e-03
Time for diagonalization                   ...    0.114 sec
Threshold for overlap eigenvalues          ... 1.000e-08
Number of eigenvalues below threshold      ... 0
Time for construction of square roots      ...    0.009 sec
Total time needed                          ...    0.124 sec

-------------------
DFT GRID GENERATION
-------------------

General Integration Accuracy     IntAcc      ...  4.670
Radial Grid Type                 RadialGrid  ... Gauss-Chebyshev
Angular Grid (max. acc.)         AngularGrid ... Lebedev-302
Angular grid pruning method      GridPruning ... 3 (G Style)
Weight generation scheme         WeightScheme... Becke
Basis function cutoff            BFCut       ...    1.0000e-11
Integration weight cutoff        WCut        ...    1.0000e-14
Grids for H and He will be reduced by one unit

# of grid points (after initial pruning)     ... 217544 (   0.2 sec)
# of grid points (after weights+screening)   ... 185133 (   2.4 sec)
nearest neighbour list constructed           ...    0.0 sec
Grid point re-assignment to atoms done       ...    0.0 sec
Grid point division into batches done        ...    0.6 sec
Reduced shell lists constructed in    2.7 sec

Total number of grid points                  ...   185133
Total number of batches                      ...     2913
Average number of points per batch           ...       63
Average number of grid points per atom       ...     4114
Average number of shells per batch           ...    85.53 (46.99%)
Average number of basis functions per batch  ...   169.45 (46.30%)
Average number of large shells per batch     ...    53.16 (62.16%)
Average number of large basis fcns per batch ...   106.66 (62.95%)
Maximum spatial batch extension              ...  21.73, 20.44, 19.49 au
Average spatial batch extension              ...   1.95,  2.03,  2.05 au

Time for grid setup =    5.365 sec

------------------------------
INITIAL GUESS: MODEL POTENTIAL
------------------------------
Loading Hartree-Fock densities                     ... done
Calculating cut-offs                               ... done
Setting up the integral package                    ... done
Initializing the effective Hamiltonian             ... done
Starting the Coulomb interaction                   ... done (   1.2 sec)
Reading the grid                                   ... done
Mapping shells                                     ... done
Starting the XC term evaluation                    ... done (   2.9 sec)
  promolecular density results
     # of electrons  =    181.989741655
     EX              =   -157.776319322
     EC              =     -6.245645450
     EX+EC           =   -164.021964771
Transforming the Hamiltonian                       ... done (   0.0 sec)
Diagonalizing the Hamiltonian                      ... done (   0.0 sec)
Back transforming the eigenvectors                 ... done (   0.0 sec)
Now organizing SCF variables                       ... done
                      ------------------
                      INITIAL GUESS DONE (   9.7 sec)
                      ------------------
--------------
SCF ITERATIONS
--------------
ITER       Energy         Delta-E        Max-DP      RMS-DP      [F,P]     Damp
               ***  Starting incremental Fock matrix formation  ***
  0  -1297.0804303339   0.000000000000 0.06025476  0.00127857  0.2278190 0.7000
  1  -1297.3033624827  -0.222932148756 0.03764514  0.00086147  0.1231414 0.7000
                               ***Turning on DIIS***
  2  -1297.4076422512  -0.104279768504 0.05747225  0.00154731  0.0565231 0.0000
  3  -1297.5835639049  -0.175921653734 0.02842785  0.00060539  0.0532026 0.0000
  4  -1297.6083124677  -0.024748562771 0.00469425  0.00011882  0.0050749 0.0000
                      *** Initiating the SOSCF procedure ***
                           *** Shutting down DIIS ***
                      *** Re-Reading the Fockian *** 
                      *** Removing any level shift *** 
ITER      Energy       Delta-E        Grad      Rot      Max-DP    RMS-DP
  5  -1297.60886338  -0.0005509096  0.000370  0.000370  0.001567  0.000044
               *** Restarting incremental Fock matrix formation ***
  6  -1297.60891954  -0.0000561661  0.000195  0.000328  0.000816  0.000025
  7  -1297.60892893  -0.0000093853  0.000070  0.000195  0.000476  0.000013
  8  -1297.60892967  -0.0000007416  0.000036  0.000028  0.000141  0.000003
  9  -1297.60893003  -0.0000003561  0.000007  0.000010  0.000044  0.000001
 10  -1297.60893003  -0.0000000039  0.000005  0.000004  0.000018  0.000000
                  ***Gradient check signals convergence***
              ***Rediagonalizing the Fockian in SOSCF/NRSCF***

               *****************************************************
               *                     SUCCESS                       *
               *           SCF CONVERGED AFTER  11 CYCLES          *
               *****************************************************

Setting up the final grid:

General Integration Accuracy     IntAcc      ...  5.010
Radial Grid Type                 RadialGrid  ... Gauss-Chebyshev
Angular Grid (max. acc.)         AngularGrid ... Lebedev-434
Angular grid pruning method      GridPruning ... 3 (G Style)
Weight generation scheme         WeightScheme... Becke
Basis function cutoff            BFCut       ...    1.0000e-11
Integration weight cutoff        WCut        ...    1.0000e-14
Grids for H and He will be reduced by one unit

# of grid points (after initial pruning)     ... 394862 (   0.3 sec)
# of grid points (after weights+screening)   ... 335278 (   4.4 sec)
nearest neighbour list constructed           ...    0.0 sec
Grid point re-assignment to atoms done       ...    0.0 sec
Grid point division into batches done        ...    2.1 sec
Reduced shell lists constructed in    5.9 sec

Total number of grid points                  ...   335278
Total number of batches                      ...     5261
Average number of points per batch           ...       63
Average number of grid points per atom       ...     7451
Average number of shells per batch           ...    82.68 (45.43%)
Average number of basis functions per batch  ...   163.29 (44.62%)
Average number of large shells per batch     ...    51.02 (61.71%)
Average number of large basis fcns per batch ...   102.17 (62.57%)
Maximum spatial batch extension              ...  17.27, 20.33, 24.14 au
Average spatial batch extension              ...   1.60,  1.65,  1.66 au

Final grid set up in   10.6 sec
Final integration                            ... done (   7.6 sec)
Change in XC energy                          ...    -0.003712078
Integrated number of electrons               ...   181.999937808
Previous integrated no of electrons          ...   182.000335861

----------------
TOTAL SCF ENERGY
----------------

Total Energy       :        -1297.61264211 Eh          -35309.83511 eV

Components:
Nuclear Repulsion  :         2454.87268447 Eh           66800.48182 eV
Electronic Energy  :        -3752.48532658 Eh         -102110.31692 eV
One Electron Energy:        -6663.14886400 Eh         -181313.49839 eV
Two Electron Energy:         2910.66353742 Eh           79203.18147 eV

Virial components:
Potential Energy   :        -2587.23148169 Eh          -70402.14779 eV
Kinetic Energy     :         1289.61883957 Eh           35092.31268 eV
Virial Ratio       :            2.00619858


DFT components:
N(Alpha)           :       90.999968903762 electrons
N(Beta)            :       90.999968903762 electrons
N(Total)           :      181.999937807524 electrons
E(XC)              :     -118.374975939155 Eh       
DFET-embed. en.    :        0.000000000000 Eh       

---------------
SCF CONVERGENCE
---------------

  Last Energy change         ...   -5.4633e-09  Tolerance :   1.0000e-08
  Last MAX-Density change    ...    4.4410e-06  Tolerance :   1.0000e-07
  Last RMS-Density change    ...    8.5130e-08  Tolerance :   5.0000e-09
  Last Orbital Gradient      ...    7.8555e-07  Tolerance :   1.0000e-05
  Last Orbital Rotation      ...    1.8133e-06  Tolerance :   1.0000e-05

             **** THE GBW FILE WAS UPDATED (sucrose.gbw) ****
             **** DENSITY FILE WAS UPDATED (sucrose.scfp) ****
             **** ENERGY FILE WAS UPDATED (sucrose.en.tmp) ****
             **** THE GBW FILE WAS UPDATED (sucrose.gbw) ****
             **** DENSITY FILE WAS UPDATED (sucrose.scfp) ****
----------------
ORBITAL ENERGIES
----------------

  NO   OCC          E(Eh)            E(eV) 
   0   2.0000     -19.259524      -524.0783 
   1   2.0000     -19.256220      -523.9884 
   2   2.0000     -19.253790      -523.9223 
   3   2.0000     -19.246100      -523.7130 
   4   2.0000     -19.243078      -523.6308 
   5   2.0000     -19.231457      -523.3145 
   6   2.0000     -19.221011      -523.0303 
   7   2.0000     -19.220030      -523.0036 
   8   2.0000     -19.217163      -522.9256 
   9   2.0000     -19.214065      -522.8413 
  10   2.0000     -19.185074      -522.0524 
  11   2.0000     -10.397660      -282.9347 
  12   2.0000     -10.386293      -282.6254 
  13   2.0000     -10.340220      -281.3717 
  14   2.0000     -10.337494      -281.2975 
  15   2.0000     -10.333678      -281.1937 
  16   2.0000     -10.333183      -281.1802 
  17   2.0000     -10.326103      -280.9876 
  18   2.0000     -10.322513      -280.8899 
  19   2.0000     -10.321308      -280.8571 
  20   2.0000     -10.319632      -280.8115 
  21   2.0000     -10.317433      -280.7516 
  22   2.0000     -10.297841      -280.2185 
  23   2.0000      -1.256711       -34.1969 
  24   2.0000      -1.215822       -33.0842 
  25   2.0000      -1.191500       -32.4224 
  26   2.0000      -1.184503       -32.2320 
  27   2.0000      -1.176507       -32.0144 
  28   2.0000      -1.172556       -31.9069 
  29   2.0000      -1.166115       -31.7316 
  30   2.0000      -1.160756       -31.5858 
  31   2.0000      -1.150115       -31.2962 
  32   2.0000      -1.141687       -31.0669 
  33   2.0000      -1.127880       -30.6912 
  34   2.0000      -0.932096       -25.3636 
  35   2.0000      -0.924508       -25.1571 
  36   2.0000      -0.917760       -24.9735 
  37   2.0000      -0.897047       -24.4099 
  38   2.0000      -0.850491       -23.1430 
  39   2.0000      -0.815745       -22.1976 
  40   2.0000      -0.795995       -21.6601 
  41   2.0000      -0.778143       -21.1743 
  42   2.0000      -0.759918       -20.6784 
  43   2.0000      -0.746055       -20.3012 
  44   2.0000      -0.737767       -20.0757 
  45   2.0000      -0.703063       -19.1313 
  46   2.0000      -0.691698       -18.8221 
  47   2.0000      -0.676836       -18.4176 
  48   2.0000      -0.668093       -18.1797 
  49   2.0000      -0.658580       -17.9209 
  50   2.0000      -0.648489       -17.6463 
  51   2.0000      -0.638137       -17.3646 
  52   2.0000      -0.632621       -17.2145 
  53   2.0000      -0.627257       -17.0685 
  54   2.0000      -0.609079       -16.5739 
  55   2.0000      -0.604313       -16.4442 
  56   2.0000      -0.600743       -16.3470 
  57   2.0000      -0.591478       -16.0949 
  58   2.0000      -0.587680       -15.9916 
  59   2.0000      -0.573360       -15.6019 
  60   2.0000      -0.567654       -15.4467 
  61   2.0000      -0.560848       -15.2614 
  62   2.0000      -0.558048       -15.1853 
  63   2.0000      -0.548482       -14.9250 
  64   2.0000      -0.541742       -14.7415 
  65   2.0000      -0.532543       -14.4912 
  66   2.0000      -0.528998       -14.3948 
  67   2.0000      -0.517274       -14.0757 
  68   2.0000      -0.510395       -13.8886 
  69   2.0000      -0.503645       -13.7049 
  70   2.0000      -0.494289       -13.4503 
  71   2.0000      -0.487556       -13.2671 
  72   2.0000      -0.481034       -13.0896 
  73   2.0000      -0.468709       -12.7542 
  74   2.0000      -0.466343       -12.6898 
  75   2.0000      -0.464837       -12.6489 
  76   2.0000      -0.458728       -12.4826 
  77   2.0000      -0.454964       -12.3802 
  78   2.0000      -0.444961       -12.1080 
  79   2.0000      -0.430483       -11.7140 
  80   2.0000      -0.419696       -11.4205 
  81   2.0000      -0.415525       -11.3070 
  82   2.0000      -0.408333       -11.1113 
  83   2.0000      -0.405367       -11.0306 
  84   2.0000      -0.400062       -10.8862 
  85   2.0000      -0.396018       -10.7762 
  86   2.0000      -0.381411       -10.3787 
  87   2.0000      -0.373159       -10.1542 
  88   2.0000      -0.366498        -9.9729 
  89   2.0000      -0.361624        -9.8403 
  90   2.0000      -0.352631        -9.5956 
  91   0.0000       0.127089         3.4583 
  92   0.0000       0.150750         4.1021 
  93   0.0000       0.151699         4.1280 
  94   0.0000       0.166842         4.5400 
  95   0.0000       0.175494         4.7754 
  96   0.0000       0.186386         5.0718 
  97   0.0000       0.189639         5.1604 
  98   0.0000       0.196479         5.3465 
  99   0.0000       0.204141         5.5550 
 100   0.0000       0.215687         5.8691 
 101   0.0000       0.220715         6.0060 
 102   0.0000       0.221823         6.0361 
 103   0.0000       0.229406         6.2424 
 104   0.0000       0.234773         6.3885 
 105   0.0000       0.240571         6.5463 
 106   0.0000       0.245548         6.6817 
 107   0.0000       0.252099         6.8600 
 108   0.0000       0.256739         6.9862 
 109   0.0000       0.259005         7.0479 
 110   0.0000       0.261636         7.1195 
 111   0.0000       0.267493         7.2788 
 112   0.0000       0.279323         7.6008 
 113   0.0000       0.285763         7.7760 
 114   0.0000       0.288287         7.8447 
 115   0.0000       0.296320         8.0633 
 116   0.0000       0.301437         8.2025 
 117   0.0000       0.304847         8.2953 
 118   0.0000       0.308870         8.4048 
 119   0.0000       0.315299         8.5797 
 120   0.0000       0.322115         8.7652 
 121   0.0000       0.329266         8.9598 
 122   0.0000       0.336179         9.1479 
 123   0.0000       0.345215         9.3938 
 124   0.0000       0.346838         9.4379 
 125   0.0000       0.356760         9.7079 
 126   0.0000       0.361159         9.8276 
 127   0.0000       0.373168        10.1544 
 128   0.0000       0.386943        10.5293 
 129   0.0000       0.393938        10.7196 
 130   0.0000       0.400205        10.8901 
 131   0.0000       0.401670        10.9300 
 132   0.0000       0.416823        11.3423 
 133   0.0000       0.423648        11.5280 
 134   0.0000       0.438690        11.9374 
 135   0.0000       0.454115        12.3571 
 136   0.0000       0.459328        12.4990 
 137   0.0000       0.607641        16.5347 
 138   0.0000       0.615706        16.7542 
 139   0.0000       0.625234        17.0135 
 140   0.0000       0.634641        17.2695 
 141   0.0000       0.643032        17.4978 
 142   0.0000       0.645726        17.5711 
 143   0.0000       0.654045        17.7975 
 144   0.0000       0.667096        18.1526 
 145   0.0000       0.672187        18.2911 
 146   0.0000       0.676191        18.4001 
 147   0.0000       0.681975        18.5575 
 148   0.0000       0.690224        18.7820 
 149   0.0000       0.695984        18.9387 
 150   0.0000       0.704416        19.1681 
 151   0.0000       0.721880        19.6433 
 152   0.0000       0.723565        19.6892 
 153   0.0000       0.735517        20.0144 
 154   0.0000       0.743782        20.2393 
 155   0.0000       0.750850        20.4317 
 156   0.0000       0.755297        20.5527 
 157   0.0000       0.766111        20.8469 
 158   0.0000       0.780747        21.2452 
 159   0.0000       0.786202        21.3937 
 160   0.0000       0.800142        21.7730 
 161   0.0000       0.807503        21.9733 
 162   0.0000       0.817887        22.2558 
 163   0.0000       0.830040        22.5865 
 164   0.0000       0.836587        22.7647 
 165   0.0000       0.851933        23.1823 
 166   0.0000       0.858264        23.3546 
 167   0.0000       0.871228        23.7073 
 168   0.0000       0.881592        23.9893 
 169   0.0000       0.893132        24.3034 
 170   0.0000       0.899992        24.4900 
 171   0.0000       0.906088        24.6559 
 172   0.0000       0.909964        24.7614 
 173   0.0000       0.914780        24.8924 
 174   0.0000       0.924982        25.1700 
 175   0.0000       0.928522        25.2664 
 176   0.0000       0.934624        25.4324 
 177   0.0000       0.940714        25.5981 
 178   0.0000       0.943007        25.6605 
 179   0.0000       0.949200        25.8291 
 180   0.0000       0.962761        26.1981 
 181   0.0000       0.971403        26.4332 
 182   0.0000       0.976046        26.5596 
 183   0.0000       0.987728        26.8774 
 184   0.0000       0.989001        26.9121 
 185   0.0000       0.998867        27.1806 
 186   0.0000       1.001031        27.2394 
 187   0.0000       1.004772        27.3412 
 188   0.0000       1.022247        27.8167 
 189   0.0000       1.029006        28.0007 
 190   0.0000       1.031982        28.0817 
 191   0.0000       1.035190        28.1689 
 192   0.0000       1.044865        28.4322 
 193   0.0000       1.053597        28.6698 
 194   0.0000       1.055628        28.7251 
 195   0.0000       1.066993        29.0344 
 196   0.0000       1.088398        29.6168 
 197   0.0000       1.098772        29.8991 
 198   0.0000       1.110959        30.2307 
 199   0.0000       1.121242        30.5105 
 200   0.0000       1.128215        30.7003 
 201   0.0000       1.131001        30.7761 
 202   0.0000       1.150937        31.3186 
 203   0.0000       1.155457        31.4416 
 204   0.0000       1.159846        31.5610 
 205   0.0000       1.162855        31.6429 
 206   0.0000       1.178498        32.0686 
 207   0.0000       1.181774        32.1577 
 208   0.0000       1.206692        32.8358 
 209   0.0000       1.229314        33.4513 
 210   0.0000       1.231216        33.5031 
 211   0.0000       1.241702        33.7884 
 212   0.0000       1.251706        34.0606 
 213   0.0000       1.256032        34.1784 
 214   0.0000       1.272207        34.6185 
 215   0.0000       1.274941        34.6929 
 216   0.0000       1.282480        34.8981 
 217   0.0000       1.301868        35.4256 
 218   0.0000       1.305849        35.5340 
 219   0.0000       1.320707        35.9383 
 220   0.0000       1.334770        36.3209 
 221   0.0000       1.357300        36.9340 
 222   0.0000       1.357806        36.9478 
 223   0.0000       1.372774        37.3551 
 224   0.0000       1.385874        37.7116 
 225   0.0000       1.394700        37.9517 
 226   0.0000       1.404383        38.2152 
 227   0.0000       1.418076        38.5878 
 228   0.0000       1.441478        39.2246 
 229   0.0000       1.457315        39.6556 
 230   0.0000       1.467188        39.9242 
 231   0.0000       1.472365        40.0651 
 232   0.0000       1.496520        40.7224 
 233   0.0000       1.502858        40.8948 
 234   0.0000       1.522270        41.4231 
 235   0.0000       1.545648        42.0592 
 236   0.0000       1.557677        42.3866 
 237   0.0000       1.561592        42.4931 
 238   0.0000       1.587557        43.1996 
 239   0.0000       1.594212        43.3807 
 240   0.0000       1.608972        43.7824 
 241   0.0000       1.638050        44.5736 
 242   0.0000       1.651896        44.9504 
 243   0.0000       1.659314        45.1522 
 244   0.0000       1.673202        45.5301 
 245   0.0000       1.688447        45.9450 
 246   0.0000       1.709957        46.5303 
 247   0.0000       1.713739        46.6332 
 248   0.0000       1.721827        46.8533 
 249   0.0000       1.732968        47.1565 
 250   0.0000       1.751529        47.6615 
 251   0.0000       1.758353        47.8472 
 252   0.0000       1.769623        48.1539 
 253   0.0000       1.773537        48.2604 
 254   0.0000       1.777737        48.3747 
 255   0.0000       1.783128        48.5214 
 256   0.0000       1.790903        48.7329 
 257   0.0000       1.811888        49.3040 
 258   0.0000       1.825228        49.6670 
 259   0.0000       1.838058        50.0161 
 260   0.0000       1.844918        50.2028 
 261   0.0000       1.857921        50.5566 
 262   0.0000       1.869463        50.8707 
 263   0.0000       1.873291        50.9748 
 264   0.0000       1.883993        51.2661 
 265   0.0000       1.890249        51.4363 
 266   0.0000       1.909810        51.9686 
 267   0.0000       1.917317        52.1729 
 268   0.0000       1.929499        52.5043 
 269   0.0000       1.929983        52.5175 
 270   0.0000       1.935813        52.6762 
 271   0.0000       1.948236        53.0142 
 272   0.0000       1.955790        53.2198 
 273   0.0000       1.966259        53.5046 
 274   0.0000       1.970320        53.6151 
 275   0.0000       1.978310        53.8325 
 276   0.0000       2.000825        54.4452 
 277   0.0000       2.005514        54.5728 
 278   0.0000       2.009824        54.6901 
 279   0.0000       2.022322        55.0302 
 280   0.0000       2.029596        55.2281 
 281   0.0000       2.033664        55.3388 
 282   0.0000       2.046020        55.6750 
 283   0.0000       2.062103        56.1127 
 284   0.0000       2.076395        56.5016 
 285   0.0000       2.088123        56.8207 
 286   0.0000       2.094377        56.9909 
 287   0.0000       2.102376        57.2086 
 288   0.0000       2.103671        57.2438 
 289   0.0000       2.123183        57.7747 
 290   0.0000       2.135533        58.1108 
 291   0.0000       2.153428        58.5977 
 292   0.0000       2.166093        58.9424 
 293   0.0000       2.172233        59.1095 
 294   0.0000       2.181223        59.3541 
 295   0.0000       2.193607        59.6911 
 296   0.0000       2.207449        60.0677 
 297   0.0000       2.210555        60.1523 
 298   0.0000       2.219394        60.3928 
 299   0.0000       2.229238        60.6607 
 300   0.0000       2.238317        60.9077 
 301   0.0000       2.244309        61.0707 
 302   0.0000       2.255092        61.3642 
 303   0.0000       2.268864        61.7389 
 304   0.0000       2.275310        61.9143 
 305   0.0000       2.279613        62.0314 
 306   0.0000       2.298122        62.5351 
 307   0.0000       2.306734        62.7694 
 308   0.0000       2.313215        62.9458 
 309   0.0000       2.334953        63.5373 
 310   0.0000       2.347184        63.8701 
 311   0.0000       2.350424        63.9583 
 312   0.0000       2.378095        64.7113 
 313   0.0000       2.386413        64.9376 
 314   0.0000       2.411433        65.6184 
 315   0.0000       2.431326        66.1597 
 316   0.0000       2.436696        66.3059 
 317   0.0000       2.460890        66.9642 
 318   0.0000       2.470171        67.2168 
 319   0.0000       2.478690        67.4486 
 320   0.0000       2.497133        67.9505 
 321   0.0000       2.528372        68.8005 
 322   0.0000       2.531931        68.8974 
 323   0.0000       2.552307        69.4518 
 324   0.0000       2.562665        69.7337 
 325   0.0000       2.574455        70.0545 
 326   0.0000       2.576762        70.1173 
 327   0.0000       2.592125        70.5353 
 328   0.0000       2.601746        70.7971 
 329   0.0000       2.610000        71.0217 
 330   0.0000       2.627754        71.5048 
 331   0.0000       2.633437        71.6595 
 332   0.0000       2.645528        71.9885 
 333   0.0000       2.661068        72.4114 
 334   0.0000       2.672083        72.7111 
 335   0.0000       2.675629        72.8076 
 336   0.0000       2.690997        73.2258 
 337   0.0000       2.694821        73.3298 
 338   0.0000       2.708864        73.7119 
 339   0.0000       2.718329        73.9695 
 340   0.0000       2.733403        74.3797 
 341   0.0000       2.750929        74.8566 
 342   0.0000       2.754783        74.9614 
 343   0.0000       2.784193        75.7617 
 344   0.0000       2.791716        75.9664 
 345   0.0000       2.815024        76.6007 
 346   0.0000       2.838599        77.2422 
 347   0.0000       2.881095        78.3986 
 348   0.0000       2.919007        79.4302 
 349   0.0000       2.934349        79.8477 
 350   0.0000       2.944651        80.1280 
 351   0.0000       2.965076        80.6838 
 352   0.0000       2.969841        80.8135 
 353   0.0000       2.998000        81.5797 
 354   0.0000       3.010769        81.9272 
 355   0.0000       3.024591        82.3033 
 356   0.0000       3.029864        82.4468 
 357   0.0000       3.052128        83.0526 
 358   0.0000       3.066272        83.4375 
 359   0.0000       3.082771        83.8865 
 360   0.0000       3.099266        84.3353 
 361   0.0000       3.126978        85.0894 
 362   0.0000       3.177727        86.4703 
 363   0.0000       3.206377        87.2500 
 364   0.0000       3.243402        88.2575 
 365   0.0000       3.274534        89.1046 

                    ********************************
                    * MULLIKEN POPULATION ANALYSIS *
                    ********************************

-----------------------
MULLIKEN ATOMIC CHARGES
-----------------------
   0 C :    0.489154
   1 O :   -0.524168
   2 C :    0.074892
   3 C :   -0.052839
   4 O :   -0.679236
   5 H :    0.445367
   6 H :    0.182106
   7 H :    0.157711
   8 C :    0.084403
   9 O :   -0.652715
  10 H :    0.424735
  11 C :    0.033050
  12 O :   -0.652789
  13 H :    0.432818
  14 H :    0.176164
  15 H :    0.163307
  16 H :    0.173059
  17 C :   -0.080979
  18 O :   -0.643389
  19 H :    0.431649
  20 H :    0.163476
  21 H :    0.184520
  22 O :   -0.558739
  23 C :    0.297064
  24 O :   -0.521412
  25 C :    0.067172
  26 C :   -0.058398
  27 H :    0.189460
  28 O :   -0.668704
  29 H :    0.436316
  30 H :    0.140818
  31 C :    0.120720
  32 O :   -0.660497
  33 H :    0.431132
  34 C :    0.097408
  35 O :   -0.680758
  36 H :    0.426842
  37 C :    0.080432
  38 O :   -0.681541
  39 H :    0.444331
  40 H :    0.168556
  41 H :    0.129170
  42 H :    0.138764
  43 H :    0.149248
  44 H :    0.182319
Sum of atomic charges:    0.0000000

--------------------------------
MULLIKEN REDUCED ORBITAL CHARGES
--------------------------------
  0 C s       :     3.019735  s :     3.019735
      pz      :     0.836726  p :     2.389619
      px      :     0.695836
      py      :     0.857057
      dz2     :     0.017478  d :     0.101491
      dxz     :     0.022346
      dyz     :     0.016667
      dx2y2   :     0.025602
      dxy     :     0.019399
  1 O s       :     3.869800  s :     3.869800
      pz      :     1.567224  p :     4.625150
      px      :     1.538608
      py      :     1.519319
      dz2     :     0.006654  d :     0.029219
      dxz     :     0.007292
      dyz     :     0.007744
      dx2y2   :     0.003509
      dxy     :     0.004019
  2 C s       :     3.166012  s :     3.166012
      pz      :     0.916240  p :     2.692443
      px      :     0.917449
      py      :     0.858753
      dz2     :     0.014736  d :     0.066653
      dxz     :     0.007351
      dyz     :     0.012338
      dx2y2   :     0.017272
      dxy     :     0.014955
  3 C s       :     3.187766  s :     3.187766
      pz      :     1.040921  p :     2.796687
      px      :     0.822137
      py      :     0.933629
      dz2     :     0.016734  d :     0.068385
      dxz     :     0.011416
      dyz     :     0.008141
      dx2y2   :     0.012828
      dxy     :     0.019267
  4 O s       :     3.852886  s :     3.852886
      pz      :     1.856088  p :     4.799853
      px      :     1.284395
      py      :     1.659370
      dz2     :     0.003782  d :     0.026498
      dxz     :     0.003683
      dyz     :     0.003420
      dx2y2   :     0.002554
      dxy     :     0.013059
  5 H s       :     0.554633  s :     0.554633
  6 H s       :     0.817894  s :     0.817894
  7 H s       :     0.842289  s :     0.842289
  8 C s       :     3.148493  s :     3.148493
      pz      :     0.920944  p :     2.695760
      px      :     0.810327
      py      :     0.964489
      dz2     :     0.016371  d :     0.071344
      dxz     :     0.013384
      dyz     :     0.006432
      dx2y2   :     0.013391
      dxy     :     0.021766
  9 O s       :     3.866355  s :     3.866355
      pz      :     1.334793  p :     4.758263
      px      :     1.513589
      py      :     1.909881
      dz2     :     0.011883  d :     0.028097
      dxz     :     0.005310
      dyz     :     0.000893
      dx2y2   :     0.005818
      dxy     :     0.004194
 10 H s       :     0.575265  s :     0.575265
 11 C s       :     3.170753  s :     3.170753
      pz      :     0.762965  p :     2.724952
      px      :     0.943850
      py      :     1.018137
      dz2     :     0.020355  d :     0.071245
      dxz     :     0.017513
      dyz     :     0.011001
      dx2y2   :     0.007269
      dxy     :     0.015108
 12 O s       :     3.860589  s :     3.860589
      pz      :     1.560686  p :     4.764072
      px      :     1.429440
      py      :     1.773947
      dz2     :     0.008947  d :     0.028128
      dxz     :     0.004891
      dyz     :     0.004335
      dx2y2   :     0.001898
      dxy     :     0.008056
 13 H s       :     0.567182  s :     0.567182
 14 H s       :     0.823836  s :     0.823836
 15 H s       :     0.836693  s :     0.836693
 16 H s       :     0.826941  s :     0.826941
 17 C s       :     3.201969  s :     3.201969
      pz      :     0.941477  p :     2.812763
      px      :     0.979576
      py      :     0.891710
      dz2     :     0.015413  d :     0.066246
      dxz     :     0.013862
      dyz     :     0.009477
      dx2y2   :     0.016374
      dxy     :     0.011119
 18 O s       :     3.852336  s :     3.852336
      pz      :     1.295520  p :     4.763680
      px      :     1.656359
      py      :     1.811801
      dz2     :     0.006673  d :     0.027373
      dxz     :     0.007388
      dyz     :     0.004674
      dx2y2   :     0.003236
      dxy     :     0.005402
 19 H s       :     0.568351  s :     0.568351
 20 H s       :     0.836524  s :     0.836524
 21 H s       :     0.815480  s :     0.815480
 22 O s       :     3.861321  s :     3.861321
      pz      :     1.553390  p :     4.671660
      px      :     1.352329
      py      :     1.765941
      dz2     :     0.006561  d :     0.025758
      dxz     :     0.007602
      dyz     :     0.003346
      dx2y2   :     0.004807
      dxy     :     0.003441
 23 C s       :     3.074665  s :     3.074665
      pz      :     0.883627  p :     2.528870
      px      :     0.921240
      py      :     0.724003
      dz2     :     0.018688  d :     0.099401
      dxz     :     0.020807
      dyz     :     0.016390
      dx2y2   :     0.022432
      dxy     :     0.021084
 24 O s       :     3.855065  s :     3.855065
      pz      :     1.553063  p :     4.638092
      px      :     1.747810
      py      :     1.337219
      dz2     :     0.007142  d :     0.028254
      dxz     :     0.004959
      dyz     :     0.005011
      dx2y2   :     0.007285
      dxy     :     0.003857
 25 C s       :     3.174165  s :     3.174165
      pz      :     0.802047  p :     2.692340
      px      :     0.914359
      py      :     0.975934
      dz2     :     0.016287  d :     0.066324
      dxz     :     0.016974
[...]
 34 C s       :     3.141371  s :     3.141371
      pz      :     0.996374  p :     2.698130
      px      :     0.752821
      py      :     0.948935
      dz2     :     0.012218  d :     0.070839
      dxz     :     0.021056
      dyz     :     0.006052
      dx2y2   :     0.018095
      dxy     :     0.013417
 35 O s       :     3.871972  s :     3.871972
      pz      :     1.918047  p :     4.774640
      px      :     1.468212
      py      :     1.388382
      dz2     :     0.004831  d :     0.027768
      dxz     :     0.003558
      dyz     :     0.001151
      dx2y2   :     0.014210
      dxy     :     0.004018
 36 H s       :     0.573519  s :     0.573519
 37 C s       :     3.140057  s :     3.140057
      pz      :     1.029333  p :     2.703049
      px      :     0.958778
      py      :     0.714939
      dz2     :     0.012483  d :     0.070592
      dxz     :     0.010879
      dyz     :     0.013849
      dx2y2   :     0.016373
      dxy     :     0.017008
 38 O s       :     3.868975  s :     3.868975
      pz      :     1.715506  p :     4.784776
      px      :     1.700478
      py      :     1.368792
      dz2     :     0.003541  d :     0.027268
      dxz     :     0.008483
      dyz     :     0.003545
      dx2y2   :     0.008451
      dxy     :     0.003249
 39 H s       :     0.561964  s :     0.561964
 40 H s       :     0.829991  s :     0.829991
 41 H s       :     0.873538  s :     0.873538
 42 H s       :     0.855982  s :     0.855982
 43 H s       :     0.851131  s :     0.851131
 44 H s       :     0.816378  s :     0.816378


                     *******************************
                     * LOEWDIN POPULATION ANALYSIS *
                     *******************************

----------------------
LOEWDIN ATOMIC CHARGES
----------------------
   0 C :    0.102764
   1 O :   -0.209093
   2 C :   -0.022476
   3 C :   -0.115577
   4 O :   -0.409957
   5 H :    0.312605
   6 H :    0.143297
   7 H :    0.124333
   8 C :   -0.046448
   9 O :   -0.390499
  10 H :    0.329249
  11 C :   -0.053974
  12 O :   -0.384968
  13 H :    0.319516
  14 H :    0.140063
  15 H :    0.127012
  16 H :    0.135056
  17 C :   -0.124614
  18 O :   -0.398019
  19 H :    0.318297
  20 H :    0.126467
  21 H :    0.140193
  22 O :   -0.225819
  23 C :    0.053888
  24 O :   -0.214927
  25 C :   -0.029698
  26 C :   -0.118556
  27 H :    0.144491
  28 O :   -0.429191
  29 H :    0.307356
  30 H :    0.116256
  31 C :   -0.034949
  32 O :   -0.397170
  33 H :    0.326760
  34 C :   -0.050796
  35 O :   -0.406362
  36 H :    0.326200
  37 C :   -0.055738
  38 O :   -0.406183
  39 H :    0.313394
  40 H :    0.137192
  41 H :    0.108895
  42 H :    0.117333
  43 H :    0.119846
  44 H :    0.134552

-------------------------------
LOEWDIN REDUCED ORBITAL CHARGES
-------------------------------
  0 C s       :     2.850027  s :     2.850027
      pz      :     0.968363  p :     2.810265
      px      :     0.852056
      py      :     0.989847
      dz2     :     0.040398  d :     0.236944
      dxz     :     0.054592
      dyz     :     0.038347
      dx2y2   :     0.063043
      dxy     :     0.040565
  1 O s       :     3.474708  s :     3.474708
      pz      :     1.591061  p :     4.670440
      px      :     1.579440
      py      :     1.499939
      dz2     :     0.012885  d :     0.063945
      dxz     :     0.014067
      dyz     :     0.017005
      dx2y2   :     0.009050
      dxy     :     0.010939
  2 C s       :     2.904322  s :     2.904322
      pz      :     1.010993  p :     2.970836
      px      :     1.005078
      py      :     0.954764
      dz2     :     0.034842  d :     0.147318
      dxz     :     0.015351
      dyz     :     0.029524
      dx2y2   :     0.037174
      dxy     :     0.030427
  3 C s       :     2.920123  s :     2.920123
      pz      :     1.101559  p :     3.051141
      px      :     0.908264
      py      :     1.041319
      dz2     :     0.028373  d :     0.144313
      dxz     :     0.025872
      dyz     :     0.020934
      dx2y2   :     0.028165
      dxy     :     0.040970
  4 O s       :     3.527859  s :     3.527859
      pz      :     1.876001  p :     4.833688
      px      :     1.309865
      py      :     1.647822
      dz2     :     0.006350  d :     0.048409
      dxz     :     0.006979
      dyz     :     0.003378
      dx2y2   :     0.007374
      dxy     :     0.024328
  5 H s       :     0.687395  s :     0.687395
  6 H s       :     0.856703  s :     0.856703
  7 H s       :     0.875667  s :     0.875667
  8 C s       :     2.888560  s :     2.888560
      pz      :     0.987043  p :     2.997297
      px      :     0.967872
      py      :     1.042383
      dz2     :     0.040473  d :     0.160591
      dxz     :     0.029018
      dyz     :     0.014764
      dx2y2   :     0.032951
      dxy     :     0.043385
  9 O s       :     3.539272  s :     3.539272
      pz      :     1.356102  p :     4.799791
      px      :     1.585726
      py      :     1.857963
      dz2     :     0.017705  d :     0.051437
      dxz     :     0.013518
      dyz     :     0.003175
      dx2y2   :     0.009047
      dxy     :     0.007991
 10 H s       :     0.670751  s :     0.670751
 11 C s       :     2.896211  s :     2.896211
      pz      :     0.901215  p :     2.998707
      px      :     1.026978
      py      :     1.070514
      dz2     :     0.046314  d :     0.159057
      dxz     :     0.038524
      dyz     :     0.026084
      dx2y2   :     0.019576
      dxy     :     0.028559
 12 O s       :     3.538891  s :     3.538891
      pz      :     1.590292  p :     4.794500
      px      :     1.413884
      py      :     1.790324
      dz2     :     0.016407  d :     0.051577
      dxz     :     0.010410
      dyz     :     0.007745
      dx2y2   :     0.005925
      dxy     :     0.011090
 13 H s       :     0.680484  s :     0.680484
 14 H s       :     0.859937  s :     0.859937
 15 H s       :     0.872988  s :     0.872988
 16 H s       :     0.864944  s :     0.864944
 17 C s       :     2.930568  s :     2.930568
      pz      :     1.003139  p :     3.054247
      px      :     1.059323
      py      :     0.991785
      dz2     :     0.030332  d :     0.139799
      dxz     :     0.029209
      dyz     :     0.022333
      dx2y2   :     0.037128
      dxy     :     0.020797
 18 O s       :     3.541992  s :     3.541992
      pz      :     1.316804  p :     4.806130
      px      :     1.715741
      py      :     1.773585
      dz2     :     0.012880  d :     0.049897
      dxz     :     0.011800
      dyz     :     0.012038
      dx2y2   :     0.005142
      dxy     :     0.008037
 19 H s       :     0.681703  s :     0.681703
 20 H s       :     0.873533  s :     0.873533
 21 H s       :     0.859807  s :     0.859807
 22 O s       :     3.465751  s :     3.465751
      pz      :     1.585214  p :     4.697722
      px      :     1.363882
      py      :     1.748625
      dz2     :     0.014365  d :     0.062345
      dxz     :     0.018461
      dyz     :     0.006861
      dx2y2   :     0.013027
      dxy     :     0.009632
 23 C s       :     2.879387  s :     2.879387
      pz      :     0.979410  p :     2.844492
      px      :     1.003574
      py      :     0.861508
      dz2     :     0.043214  d :     0.222234
      dxz     :     0.044740
      dyz     :     0.034434
      dx2y2   :     0.051644
      dxy     :     0.048203
 24 O s       :     3.475182  s :     3.475182
      pz      :     1.568437  p :     4.676393
      px      :     1.735330
      py      :     1.372625
      dz2     :     0.015175  d :     0.063353
      dxz     :     0.009089
      dyz     :     0.012604
      dx2y2   :     0.016504
      dxy     :     0.009980
 25 C s       :     2.905942  s :     2.905942
      pz      :     0.914150  p :     2.976635
      px      :     1.005561
      py      :     1.056925
      dz2     :     0.037911  d :     0.147120
      dxz     :     0.033513
      dyz     :     0.025967
      dx2y2   :     0.029884
      dxy     :     0.019845
 26 C s       :     2.917060  s :     2.917060
      pz      :     1.110944  p :     3.057407
      px      :     0.919359
      py      :     1.027104
      dz2     :     0.023321  d :     0.144089
      dxz     :     0.034900
      dyz     :     0.013495
      dx2y2   :     0.041141
      dxy     :     0.031231
 27 H s       :     0.855509  s :     0.855509
 28 O s       :     3.539690  s :     3.539690
      pz      :     1.670893  p :     4.840336
      px      :     1.314541
      py      :     1.854901
      dz2     :     0.006230  d :     0.049165
      dxz     :     0.022029
      dyz     :     0.004044
      dx2y2   :     0.008182
      dxy     :     0.008681
 29 H s       :     0.692644  s :     0.692644
 30 H s       :     0.883744  s :     0.883744
 31 C s       :     2.887811  s :     2.887811
      pz      :     0.958204  p :     2.986894
      px      :     1.009008
      py      :     1.019682
      dz2     :     0.046958  d :     0.160244
      dxz     :     0.033793
      dyz     :     0.025852
      dx2y2   :     0.032913
      dxy     :     0.020728
 32 O s       :     3.539299  s :     3.539299
      pz      :     1.595696  p :     4.807000
      px      :     1.477903
      py      :     1.733401
      dz2     :     0.014035  d :     0.050871
      dxz     :     0.007354
      dyz     :     0.009797
      dx2y2   :     0.005239
      dxy     :     0.014447
 33 H s       :     0.673240  s :     0.673240
 34 C s       :     2.892387  s :     2.892387
      pz      :     1.077436  p :     2.998046
      px      :     0.894309
      py      :     1.026300
      dz2     :     0.027213  d :     0.160363
      dxz     :     0.046547
      dyz     :     0.012847
      dx2y2   :     0.043894
      dxy     :     0.029862
 35 O s       :     3.539199  s :     3.539199
      pz      :     1.909500  p :     4.816794
      px      :     1.514800
      py      :     1.392494
      dz2     :     0.007056  d :     0.050370
      dxz     :     0.006995
      dyz     :     0.002048
      dx2y2   :     0.025197
      dxy     :     0.009074
 36 H s       :     0.673800  s :     0.673800
 37 C s       :     2.890887  s :     2.890887
      pz      :     1.089206  p :     3.004177
      px      :     1.048853
      py      :     0.866118
      dz2     :     0.027573  d :     0.160675
      dxz     :     0.023580
      dyz     :     0.030795
      dx2y2   :     0.038137
      dxy     :     0.040590
 38 O s       :     3.535382  s :     3.535382
      pz      :     1.718545  p :     4.821274
      px      :     1.687158
      py      :     1.415571
      dz2     :     0.005988  d :     0.049526
      dxz     :     0.011096
      dyz     :     0.008420
      dx2y2   :     0.016166
      dxy     :     0.007856
 39 H s       :     0.686606  s :     0.686606
 40 H s       :     0.862808  s :     0.862808
 41 H s       :     0.891105  s :     0.891105
 42 H s       :     0.882667  s :     0.882667
 43 H s       :     0.880154  s :     0.880154
 44 H s       :     0.865448  s :     0.865448


                      *****************************
                      * MAYER POPULATION ANALYSIS *
                      *****************************

  NA   - Mulliken gross atomic population
  ZA   - Total nuclear charge
  QA   - Mulliken gross atomic charge
  VA   - Mayer's total valence
  BVA  - Mayer's bonded valence
  FA   - Mayer's free valence

  ATOM       NA         ZA         QA         VA         BVA        FA
  0 C      5.5190     6.0000     0.4810     3.7526     3.7526     0.0000
  1 O      8.5329     8.0000    -0.5329     1.8992     1.8992     0.0000
  2 C      5.9235     6.0000     0.0765     3.7357     3.7357    -0.0000
  3 C      6.0504     6.0000    -0.0504     3.8113     3.8113     0.0000
  4 O      8.6787     8.0000    -0.6787     1.8087     1.8087    -0.0000
  5 H      0.5525     1.0000     0.4475     0.7966     0.7966     0.0000
  6 H      0.8163     1.0000     0.1837     0.9290     0.9290     0.0000
  7 H      0.8396     1.0000     0.1604     0.9289     0.9289     0.0000
  8 C      5.9226     6.0000     0.0774     3.7716     3.7716    -0.0000
  9 O      8.6519     8.0000    -0.6519     1.7831     1.7831     0.0000
 10 H      0.5731     1.0000     0.4269     0.7885     0.7885    -0.0000
 11 C      5.9565     6.0000     0.0435     3.7701     3.7701     0.0000
 12 O      8.6560     8.0000    -0.6560     1.8143     1.8143     0.0000
 13 H      0.5696     1.0000     0.4304     0.7992     0.7992     0.0000
 14 H      0.8211     1.0000     0.1789     0.9352     0.9352     0.0000
 15 H      0.8372     1.0000     0.1628     0.9600     0.9600     0.0000
 16 H      0.8283     1.0000     0.1717     0.9301     0.9301     0.0000
 17 C      6.0679     6.0000    -0.0679     3.7727     3.7727     0.0000
 18 O      8.6469     8.0000    -0.6469     1.8193     1.8193     0.0000
 19 H      0.5719     1.0000     0.4281     0.8079     0.8079     0.0000
 20 H      0.8364     1.0000     0.1636     0.9325     0.9325     0.0000
 21 H      0.8155     1.0000     0.1845     0.9367     0.9367    -0.0000
 22 O      8.5626     8.0000    -0.5626     1.8435     1.8435    -0.0000
 23 C      5.6951     6.0000     0.3049     3.7507     3.7507    -0.0000
 24 O      8.5306     8.0000    -0.5306     1.9173     1.9173     0.0000
 25 C      5.9303     6.0000     0.0697     3.7188     3.7188     0.0000
 26 C      6.0679     6.0000    -0.0679     3.8292     3.8292     0.0000
 27 H      0.8106     1.0000     0.1894     0.9353     0.9353    -0.0000
 28 O      8.6752     8.0000    -0.6752     1.7628     1.7628    -0.0000
 29 H      0.5567     1.0000     0.4433     0.8051     0.8051     0.0000
 30 H      0.8560     1.0000     0.1440     0.9348     0.9348     0.0000
 31 C      5.8722     6.0000     0.1278     3.7644     3.7644    -0.0000
 32 O      8.6628     8.0000    -0.6628     1.7716     1.7716     0.0000
 33 H      0.5702     1.0000     0.4298     0.7942     0.7942    -0.0000
 34 C      5.9103     6.0000     0.0897     3.8060     3.8060    -0.0000
 35 O      8.6744     8.0000    -0.6744     1.7729     1.7729     0.0000
 36 H      0.5735     1.0000     0.4265     0.7994     0.7994    -0.0000
 37 C      5.9137     6.0000     0.0863     3.8139     3.8139     0.0000
 38 O      8.6810     8.0000    -0.6810     1.7701     1.7701     0.0000
 39 H      0.5620     1.0000     0.4380     0.8114     0.8114     0.0000
 40 H      0.8300     1.0000     0.1700     0.9338     0.9338    -0.0000
 41 H      0.8735     1.0000     0.1265     0.9471     0.9471    -0.0000
 42 H      0.8560     1.0000     0.1440     0.9359     0.9359    -0.0000
 43 H      0.8511     1.0000     0.1489     0.9480     0.9480    -0.0000
 44 H      0.8164     1.0000     0.1836     0.9401     0.9401     0.0000

  Mayer bond orders larger than 0.100000
B(  0-C ,  1-O ) :   0.9378 B(  0-C , 11-C ) :   0.9339 B(  0-C , 17-C ) :   0.9636 
B(  0-C , 22-O ) :   0.8521 B(  1-O ,  2-C ) :   0.8582 B(  2-C ,  3-C ) :   0.9846 
B(  2-C ,  8-C ) :   0.9598 B(  2-C , 16-H ) :   0.9163 B(  3-C ,  4-O ) :   0.9628 
B(  3-C ,  6-H ) :   0.9289 B(  3-C ,  7-H ) :   0.9281 B(  4-O ,  5-H ) :   0.6737 
B(  4-O , 29-H ) :   0.1095 B(  8-C ,  9-O ) :   0.9499 B(  8-C , 11-C ) :   0.9483 
B(  8-C , 15-H ) :   0.8994 B(  9-O , 10-H ) :   0.7731 B( 11-C , 12-O ) :   0.9518 
B( 11-C , 14-H ) :   0.9225 B( 12-O , 13-H ) :   0.7448 B( 17-C , 18-O ) :   0.9383 
B( 17-C , 20-H ) :   0.9266 B( 17-C , 21-H ) :   0.9247 B( 18-O , 19-H ) :   0.7350 
B( 22-O , 23-C ) :   0.8693 B( 23-C , 24-O ) :   0.9288 B( 23-C , 37-C ) :   0.9430 
B( 23-C , 44-H ) :   0.9165 B( 24-O , 25-C ) :   0.8401 B( 25-C , 26-C ) :   0.9810 
B( 25-C , 31-C ) :   0.9404 B( 25-C , 43-H ) :   0.9114 B( 26-C , 27-H ) :   0.9271 
B( 26-C , 28-O ) :   0.9948 B( 26-C , 30-H ) :   0.9288 B( 28-O , 29-H ) :   0.6840 
B( 31-C , 32-O ) :   0.9331 B( 31-C , 34-C ) :   0.9664 B( 31-C , 42-H ) :   0.9167 
B( 32-O , 33-H ) :   0.7595 B( 34-C , 35-O ) :   0.9317 B( 34-C , 37-C ) :   0.9510 
B( 34-C , 41-H ) :   0.9170 B( 35-O , 36-H ) :   0.7588 B( 37-C , 38-O ) :   0.9705 
B( 37-C , 40-H ) :   0.9199 B( 38-O , 39-H ) :   0.6844 

-------
TIMINGS
-------

Total SCF time: 0 days 0 hours 5 min 49 sec 

Total time                  ....     349.726 sec
Sum of individual times     ....     349.376 sec  ( 99.9%)

Fock matrix formation       ....     334.370 sec  ( 95.6%)
  XC integration            ....      22.033 sec  (  6.6% of F)
    Basis function eval.    ....       7.511 sec  ( 34.1% of XC)
    Density eval.           ....       4.943 sec  ( 22.4% of XC)
    XC-Functional eval.     ....       4.823 sec  ( 21.9% of XC)
    XC-Potential eval.      ....       4.116 sec  ( 18.7% of XC)
Diagonalization             ....       0.024 sec  (  0.0%)
Density matrix formation    ....       0.020 sec  (  0.0%)
Population analysis         ....       0.018 sec  (  0.0%)
Initial guess               ....       0.023 sec  (  0.0%)
Orbital Transformation      ....       0.000 sec  (  0.0%)
Orbital Orthonormalization  ....       0.017 sec  (  0.0%)
DIIS solution               ....       0.007 sec  (  0.0%)
SOSCF solution              ....       0.062 sec  (  0.0%)
Grid generation             ....      14.854 sec  (  4.2%)

-------------------------   --------------------
FINAL SINGLE POINT ENERGY     -1297.617234882823
-------------------------   --------------------

                                *** OPTIMIZATION RUN DONE ***

                            ***************************************
                            *     ORCA property calculations      *
                            ***************************************

                                    ---------------------
                                    Active property flags
                                    ---------------------
   (+) Dipole Moment


------------------------------------------------------------------------------
                       ORCA ELECTRIC PROPERTIES CALCULATION
------------------------------------------------------------------------------

Dipole Moment Calculation                       ... on
Quadrupole Moment Calculation                   ... off
Polarizability Calculation                      ... off
GBWName                                         ... sucrose.gbw
Electron density file                           ... sucrose.scfp
The origin for moment calculation is the CENTER OF MASS  = ( 0.000612, -0.012583 -0.008420)

-------------
DIPOLE MOMENT
-------------
                                X             Y             Z
Electronic contribution:      0.70915      -2.85383       0.96417
Nuclear contribution   :     -1.40767       1.99211      -1.17859
                        -----------------------------------------
Total Dipole Moment    :     -0.69852      -0.86172      -0.21442
                        -----------------------------------------
Magnitude (a.u.)       :      1.12981
Magnitude (Debye)      :      2.87174



--------------------
Rotational spectrum 
--------------------
 
Rotational constants in cm-1:     0.011461     0.007962     0.005885 
Rotational constants in MHz :   343.587380   238.682273   176.432578 

 Dipole components along the rotational axes: 
x,y,z [a.u.] :    -0.666468    -0.890677    -0.197427 
x,y,z [Debye]:    -1.694027    -2.263922    -0.501819 

 

Timings for individual modules:

Sum of individual times         ...    14188.094 sec (= 236.468 min)
GTO integral calculation        ...        7.721 sec (=   0.129 min)   0.1 %
SCF iterations                  ...     9249.870 sec (= 154.164 min)  65.2 %
SCF Gradient evaluation         ...     4924.510 sec (=  82.075 min)  34.7 %
Geometry relaxation             ...        5.992 sec (=   0.100 min)   0.0 %
                             ****ORCA TERMINATED NORMALLY****
TOTAL RUN TIME: 0 days 3 hours 56 minutes 32 seconds 541 msec
