2
Point_1/orca1.out	Energy:      -0.5785812
H          0.00000        0.00000        0.00000
H          0.27800        0.00000        0.00000
