2
Point_10/orca10.out	Energy:      -1.1108201
H          0.00000        0.00000        0.00000
H          1.17800        0.00000        0.00000
