2
Point_11/orca11.out	Energy:      -1.0924451
H          0.00000        0.00000        0.00000
H          1.27800        0.00000        0.00000
