2
Point_12/orca12.out	Energy:      -1.0744547
H          0.00000        0.00000        0.00000
H          1.37800        0.00000        0.00000
