2
Point_13/orca13.out	Energy:      -1.0571629
H          0.00000        0.00000        0.00000
H          1.47800        0.00000        0.00000
