2
Point_14/orca14.out	Energy:      -1.0407046
H          0.00000        0.00000        0.00000
H          1.57800        0.00000        0.00000
