2
Point_15/orca15.out	Energy:      -1.0251520
H          0.00000        0.00000        0.00000
H          1.67800        0.00000        0.00000
