2
Point_16/orca16.out	Energy:      -1.0105469
H          0.00000        0.00000        0.00000
H          1.77800        0.00000        0.00000
