2
Point_17/orca17.out	Energy:      -0.9968752
H          0.00000        0.00000        0.00000
H          1.87800        0.00000        0.00000
