2
Point_18/orca18.out	Energy:      -0.9841201
H          0.00000        0.00000        0.00000
H          1.97800        0.00000        0.00000
