2
Point_19/orca19.out	Energy:      -0.9722509
H          0.00000        0.00000        0.00000
H          2.07800        0.00000        0.00000
