2
Point_2/orca2.out	Energy:      -0.9272723
H          0.00000        0.00000        0.00000
H          0.37800        0.00000        0.00000
