2
Point_20/orca20.out	Energy:      -0.9612298
H          0.00000        0.00000        0.00000
H          2.17800        0.00000        0.00000
