2
Point_21/orca21.out	Energy:      -0.9510081
H          0.00000        0.00000        0.00000
H          2.27800        0.00000        0.00000
