2
Point_22/orca22.out	Energy:      -0.9415271
H          0.00000        0.00000        0.00000
H          2.37800        0.00000        0.00000
