2
Point_23/orca23.out	Energy:      -0.9327351
H          0.00000        0.00000        0.00000
H          2.47800        0.00000        0.00000
