2
Point_24/orca24.out	Energy:      -0.9245746
H          0.00000        0.00000        0.00000
H          2.57800        0.00000        0.00000
