2
Point_25/orca25.out	Energy:      -0.9170023
H          0.00000        0.00000        0.00000
H          2.67800        0.00000        0.00000
