2
Point_26/orca26.out	Energy:      -0.9099807
H          0.00000        0.00000        0.00000
H          2.77800        0.00000        0.00000
