2
Point_27/orca27.out	Energy:      -0.9034664
H          0.00000        0.00000        0.00000
H          2.87800        0.00000        0.00000
