2
Point_28/orca28.out	Energy:      -0.8974370
H          0.00000        0.00000        0.00000
H          2.97800        0.00000        0.00000
