2
Point_29/orca29.out	Energy:      -0.8918544
H          0.00000        0.00000        0.00000
H          3.07800        0.00000        0.00000
