2
Point_3/orca3.out	Energy:      -1.0782806
H          0.00000        0.00000        0.00000
H          0.47800        0.00000        0.00000
