2
Point_30/orca30.out	Energy:      -0.8867034
H          0.00000        0.00000        0.00000
H          3.17800        0.00000        0.00000
