2
Point_31/orca31.out	Energy:      -0.8819520
H          0.00000        0.00000        0.00000
H          3.27800        0.00000        0.00000
