2
Point_32/orca32.out	Energy:      -0.8775745
H          0.00000        0.00000        0.00000
H          3.37800        0.00000        0.00000
