2
Point_33/orca33.out	Energy:      -0.8735491
H          0.00000        0.00000        0.00000
H          3.47800        0.00000        0.00000
