2
Point_34/orca34.out	Energy:      -0.8698488
H          0.00000        0.00000        0.00000
H          3.57800        0.00000        0.00000
