2
Point_35/orca35.out	Energy:      -0.8664506
H          0.00000        0.00000        0.00000
H          3.67800        0.00000        0.00000
