2
Point_36/orca36.out	Energy:      -0.8633345
H          0.00000        0.00000        0.00000
H          3.77800        0.00000        0.00000
