2
Point_37/orca37.out	Energy:      -0.8604761
H          0.00000        0.00000        0.00000
H          3.87800        0.00000        0.00000
