2
Point_38/orca38.out	Energy:      -0.8578520
H          0.00000        0.00000        0.00000
H          3.97800        0.00000        0.00000
