2
Point_39/orca39.out	Energy:      -0.8554377
H          0.00000        0.00000        0.00000
H          4.07800        0.00000        0.00000
