2
Point_4/orca4.out	Energy:      -1.1434523
H          0.00000        0.00000        0.00000
H          0.57800        0.00000        0.00000
