2
Point_40/orca40.out	Energy:      -0.8532157
H          0.00000        0.00000        0.00000
H          4.17800        0.00000        0.00000
