2
Point_41/orca41.out	Energy:      -0.8511681
H          0.00000        0.00000        0.00000
H          4.27800        0.00000        0.00000
