2
Point_42/orca42.out	Energy:      -0.8492768
H          0.00000        0.00000        0.00000
H          4.37800        0.00000        0.00000
