2
Point_43/orca43.out	Energy:      -0.8475246
H          0.00000        0.00000        0.00000
H          4.47800        0.00000        0.00000
