2
Point_44/orca44.out	Energy:      -0.8458957
H          0.00000        0.00000        0.00000
H          4.57800        0.00000        0.00000
