2
Point_45/orca45.out	Energy:      -0.8443785
H          0.00000        0.00000        0.00000
H          4.67800        0.00000        0.00000
