2
Point_5/orca5.out	Energy:      -1.1670987
H          0.00000        0.00000        0.00000
H          0.67800        0.00000        0.00000
