2
Point_6/orca6.out	Energy:      -1.1694682
H          0.00000        0.00000        0.00000
H          0.77800        0.00000        0.00000
