2
Point_7/orca7.out	Energy:      -1.1607212
H          0.00000        0.00000        0.00000
H          0.87800        0.00000        0.00000
