2
Point_8/orca8.out	Energy:      -1.1462606
H          0.00000        0.00000        0.00000
H          0.97800        0.00000        0.00000
