2
Point_9/orca9.out	Energy:      -1.1290781
H          0.00000        0.00000        0.00000
H          1.07800        0.00000        0.00000
