4
Point_1/orca1.out	Energy:     -56.3961055
N          0.05043        1.29595       -0.03623
H          0.82928        1.02389        0.00526
H         -0.33893        1.32436       -0.76421
H         -0.33893        1.54002        0.65021
