4
Point_10/orca10.out	Energy:     -56.4057651
N         -0.11196        0.84191        0.03300
H          1.19994        1.06461       -0.00095
H         -0.44306        1.48720       -1.08314
H         -0.44307        1.79050        0.90613
