4
Point_11/orca11.out	Energy:     -56.3474885
N         -0.13070        0.78951        0.04099
H          1.27575        1.05776        0.00010
H         -0.47160        1.50719       -1.15083
H         -0.47161        1.82976        0.96478
