4
Point_12/orca12.out	Energy:     -56.2877806
N         -0.14884        0.73878        0.04873
H          1.35531        1.04898        0.00143
H         -0.50231        1.52677       -1.22212
H         -0.50231        1.86969        1.02700
