4
Point_13/orca13.out	Energy:     -56.2285464
N         -0.16658        0.68917        0.05629
H          1.43854        1.03849        0.00303
H         -0.53505        1.54612       -1.29691
H         -0.53506        1.91044        1.09262
