4
Point_14/orca14.out	Energy:     -56.1711771
N         -0.18406        0.64029        0.06374
H          1.52479        1.02667        0.00483
H         -0.56944        1.56533       -1.37457
H         -0.56944        1.95193        1.16103
