4
Point_15/orca15.out	Energy:     -56.1161112
N         -0.20270        0.58817        0.07169
H          1.61152        1.01591        0.00648
H         -0.60348        1.58562       -1.45247
H         -0.60349        1.99452        1.22934
