4
Point_16/orca16.out	Energy:     -56.0643042
N         -0.22033        0.53889        0.07920
H          1.70152        1.00293        0.00846
H         -0.63967        1.60511       -1.53361
H         -0.63967        2.03729        1.30099
