4
Point_17/orca17.out	Energy:     -56.0167235
N         -0.24042        0.48270        0.08777
H          1.78558        0.99462        0.00972
H         -0.67165        1.62664       -1.60878
H         -0.67166        2.08025        1.36632
