4
Point_18/orca18.out	Energy:     -55.9728316
N         -0.26229        0.42155        0.09710
H          1.86563        0.98958        0.01048
H         -0.70073        1.64966       -1.67989
H         -0.70075        2.12343        1.42735
