4
Point_19/orca19.out	Energy:     -55.9337459
N         -0.31370        0.27781        0.11902
H          1.86810        1.04262        0.00239
H         -0.67626        1.69705       -1.67349
H         -0.67628        2.16675        1.40712
