4
Point_2/orca2.out	Energy:     -56.4342389
N          0.05042        1.29594       -0.03622
H          0.85290        1.01564        0.00652
H         -0.35074        1.32522       -0.78628
H         -0.35074        1.54742        0.67103
