4
Point_20/orca20.out	Energy:     -56.0679462
N         -0.43649       -0.30416        0.38321
H          0.93799        1.39621       -0.71310
H          0.25043        1.95303       -0.20843
H         -0.55008        2.13913        0.39335
