4
Point_21/orca21.out	Energy:     -56.0583234
N         -0.45954       -0.37981        0.40304
H          0.94753        1.42417       -0.72106
H          0.25605        1.97198       -0.21356
H         -0.54220        2.16787        0.38662
