4
Point_22/orca22.out	Energy:     -56.0497603
N         -0.48236       -0.45494        0.42279
H          0.95666        1.45140       -0.72947
H          0.26260        1.99167       -0.21798
H         -0.53506        2.19609        0.37970
