4
Point_23/orca23.out	Energy:     -56.0421042
N         -0.50515       -0.52954        0.44222
H          0.96712        1.47782       -0.73675
H          0.26746        2.01195       -0.22505
H         -0.52758        2.22400        0.37463
