4
Point_24/orca24.out	Energy:     -56.0353229
N         -0.52772       -0.60394        0.46181
H          0.97573        1.50417       -0.74532
H          0.27483        2.03262       -0.22902
H         -0.52099        2.25136        0.36756
