4
Point_25/orca25.out	Energy:     -56.0292699
N         -0.55035       -0.67809        0.48117
H          0.98528        1.53033       -0.75230
H          0.28023        2.05353       -0.23579
H         -0.51331        2.27845        0.36197
