4
Point_26/orca26.out	Energy:     -56.0237978
N         -0.57272       -0.75188        0.50062
H          0.99391        1.55580       -0.76133
H          0.28826        2.07492       -0.23936
H         -0.50759        2.30538        0.35511
