4
Point_27/orca27.out	Energy:     -56.0189815
N         -0.59522       -0.82560        0.51986
H          1.00346        1.58152       -0.76793
H          0.29345        2.09629       -0.24673
H         -0.49984        2.33200        0.34984
