4
Point_28/orca28.out	Energy:     -56.0146608
N         -0.61753       -0.89913        0.53923
H          1.01150        1.60699       -0.77645
H          0.30151        2.11797       -0.25043
H         -0.49364        2.35839        0.34269
