4
Point_29/orca29.out	Energy:     -56.0106456
N         -0.63993       -0.97249        0.55835
H          1.02130        1.63230       -0.78276
H          0.30638        2.13969       -0.25847
H         -0.48590        2.38472        0.33792
