4
Point_3/orca3.out	Energy:     -56.4676725
N          0.05041        1.29590       -0.03622
H          0.88016        1.00612        0.00797
H         -0.36436        1.32622       -0.81176
H         -0.36436        1.55597        0.69505
