4
Point_30/orca30.out	Energy:     -56.0078458
N         -0.66215       -1.04576        0.57766
H          1.02898        1.65757       -0.79128
H          0.31480        2.16165       -0.26189
H         -0.47978        2.41077        0.33055
