4
Point_31/orca31.out	Energy:     -56.0045841
N         -0.68449       -1.11890        0.59672
H          1.03860        1.68276       -0.79723
H          0.31953        2.18358       -0.27026
H         -0.47179        2.43677        0.32581
