4
Point_32/orca32.out	Energy:     -56.0009844
N         -0.70663       -1.19193        0.61597
H          1.04599        1.70782       -0.80587
H          0.32834        2.20576       -0.27331
H         -0.46585        2.46256        0.31825
