4
Point_33/orca33.out	Energy:     -55.9983299
N         -0.72891       -1.26487        0.63499
H          1.05551        1.73292       -0.81152
H          0.33290        2.22786       -0.28200
H         -0.45765        2.48831        0.31358
