4
Point_34/orca34.out	Energy:     -55.8145950
N         -0.75109       -1.33786        0.65417
H          1.06238        1.75847       -0.81876
H          0.34077        2.25003       -0.28630
H         -0.45022        2.51358        0.30593
