4
Point_35/orca35.out	Energy:     -55.8113186
N         -0.77322       -1.41060        0.67324
H          1.07060        1.78340       -0.82577
H          0.34757        2.27237       -0.29216
H         -0.44310        2.53906        0.29973
