4
Point_36/orca36.out	Energy:     -55.8081751
N         -0.79534       -1.48329        0.69229
H          1.07874        1.80828       -0.83274
H          0.35440        2.29478       -0.29801
H         -0.43595        2.56445        0.29351
