4
Point_37/orca37.out	Energy:     -55.8051998
N         -0.81744       -1.55590        0.71132
H          1.08686        1.83312       -0.83963
H          0.36119        2.31725       -0.30397
H         -0.42876        2.58975        0.28731
