4
Point_38/orca38.out	Energy:     -55.8024084
N         -0.83951       -1.62845        0.73035
H          1.09482        1.85791       -0.84664
H          0.36824        2.33978       -0.30962
H         -0.42170        2.61498        0.28096
