4
Point_39/orca39.out	Energy:     -55.7996465
N         -0.86159       -1.70093        0.74932
H          1.10325        1.88265       -0.85299
H          0.37434        2.36234       -0.31656
H         -0.41415        2.64016        0.27527
