4
Point_4/orca4.out	Energy:     -56.4946956
N          0.05033        1.29568       -0.03618
H          0.91207        0.99506        0.00965
H         -0.38027        1.32746       -0.84157
H         -0.38028        1.56603        0.72314
