4
Point_40/orca40.out	Energy:     -55.7969527
N         -0.88355       -1.77331        0.76838
H          1.11033        1.90701       -0.86186
H          0.38383        2.38516       -0.31912
H         -0.40876        2.66536        0.26765
