4
Point_41/orca41.out	Energy:     -55.7944369
N         -0.90564       -1.84575        0.78731
H          1.11932        1.93167       -0.86749
H          0.38889        2.40780       -0.32752
H         -0.40072        2.69050        0.26274
