4
Point_42/orca42.out	Energy:     -55.7922215
N         -0.92766       -1.91807        0.80625
H          1.12687        1.95667       -0.87344
H          0.39526        2.43040       -0.33413
H         -0.39261        2.71522        0.25636
