4
Point_43/orca43.out	Energy:     -55.7898891
N         -0.94960       -1.99031        0.82524
H          1.13397        1.98108       -0.88160
H          0.40409        2.45328       -0.33761
H         -0.38660        2.74018        0.24901
