4
Point_44/orca44.out	Energy:     -55.7876061
N         -0.97163       -2.06258        0.84413
H          1.14314        2.00542       -0.88747
H          0.40931        2.47610       -0.34591
H         -0.37897        2.76528        0.24429
