4
Point_45/orca45.out	Energy:     -55.7856376
N         -0.99357       -2.13476        0.86309
H          1.14971        2.03027       -0.89453
H          0.41746        2.49889       -0.35025
H         -0.37175        2.78981        0.23674
