4
Point_5/orca5.out	Energy:     -56.5207676
N         -0.02583        1.08273       -0.00371
H          0.93472        1.06700       -0.00131
H         -0.35352        1.39834       -0.84983
H         -0.35352        1.63615        0.70990
