4
Point_6/orca6.out	Energy:     -56.5287365
N         -0.04099        1.04035        0.00275
H          0.97068        1.07032       -0.00182
H         -0.36392        1.41359       -0.88088
H         -0.36392        1.65996        0.73499
