4
Point_7/orca7.out	Energy:     -56.5219179
N         -0.05716        0.99512        0.00964
H          1.01393        1.07216       -0.00210
H         -0.37746        1.43004       -0.91856
H         -0.37746        1.68689        0.76606
