4
Point_8/orca8.out	Energy:     -56.4982833
N         -0.07444        0.94681        0.01701
H          1.06668        1.07184       -0.00205
H         -0.39520        1.44785       -0.96494
H         -0.39520        1.71771        0.80503
