4
Point_9/orca9.out	Energy:     -56.4582187
N         -0.09294        0.89507        0.02490
H          1.12911        1.06943       -0.00168
H         -0.41716        1.46714       -1.02016
H         -0.41716        1.75259        0.85199
