
                                 *****************
                                 * O   R   C   A *
                                 *****************

           --- An Ab Initio, DFT and Semiempirical electronic structure package ---

                  #######################################################
                  #                        -***-                        #
                  #  Department of molecular theory and spectroscopy    #
                  #              Directorship: Frank Neese              #
                  # Max Planck Institute for Chemical Energy Conversion #
                  #                  D-45470 Muelheim/Ruhr              #
                  #                       Germany                       #
                  #                                                     #
                  #                  All rights reserved                #
                  #                        -***-                        #
                  #######################################################


                         Program Version 4.0.0.2 - RELEASE -


 With contributions from (in alphabetic order):
   Daniel Aravena         : Magnetic Properties
   Michael Atanasov       : Ab Initio Ligand Field Theory
   Ute Becker             : Parallelization
   Martin Brehm           : Molecular dynamics
   Dmytro Bykov           : SCF Hessian
   Vijay G. Chilkuri      : MRCI spin determinant printing
   Dipayan Datta          : RHF DLPNO-CCSD density
   Achintya Kumar Dutta   : EOM-CC, STEOM-CC
   Dmitry Ganyushin       : Spin-Orbit,Spin-Spin,Magnetic field MRCI
   Yang Guo               : DLPNO-NEVPT2, CIM, IAO-localization
   Andreas Hansen         : Spin unrestricted coupled pair/coupled cluster methods
   Lee Huntington         : MR-EOM, pCC
   Robert Izsak           : Overlap fitted RIJCOSX, COSX-SCS-MP3, EOM
   Christian Kollmar      : KDIIS, OOCD, Brueckner-CCSD(T), CCSD density
   Simone Kossmann        : Meta GGA functionals, TD-DFT gradient, OOMP2, MP2 Hessian
   Martin Krupicka        : AUTO-CI
   Dagmar Lenk            : GEPOL surface
   Dimitrios Liakos       : Extrapolation schemes; parallel MDCI
   Dimitrios Manganas     : ROCIS; embedding schemes
   Dimitrios Pantazis     : SARC Basis sets
   Taras Petrenko         : DFT Hessian,TD-DFT gradient, ASA, ECA, R-Raman, ABS, FL, XAS/XES, NRVS
   Peter Pinski           : DLPNO-MP2
   Christoph Reimann      : Effective Core Potentials
   Marius Retegan         : Local ZFS, SOC
   Christoph Riplinger    : Optimizer, TS searches, QM/MM, DLPNO-CCSD(T), (RO)-DLPNO pert. Triples
   Tobias Risthaus        : Range-separated hybrids, TD-DFT gradient, RPA, STAB
   Michael Roemelt        : Restricted open shell CIS
   Masaaki Saitow         : Open-shell DLPNO
   Barbara Sandhoefer     : DKH picture change effects
   Kantharuban Sivalingam : CASSCF convergence, NEVPT2, FIC-MRCI
   Georgi Stoychev        : AutoAux
   Boris Wezisla          : Elementary symmetry handling
   Frank Wennmohs         : Technical directorship


 We gratefully acknowledge several colleagues who have allowed us to
 interface, adapt or use parts of their codes:
   Stefan Grimme, W. Hujo, H. Kruse,             : VdW corrections, initial TS optimization,
                  C. Bannwarth                     DFT functionals, gCP, sTDA/sTD-DF
   Ed Valeev                                     : LibInt (2-el integral package), F12 methods
   Garnet Chan, S. Sharma, J. Yang, R. Olivares  : DMRG
   Ulf Ekstrom                                   : XCFun DFT Library
   Mihaly Kallay                                 : mrcc  (arbitrary order and MRCC methods)
   Jiri Pittner, Ondrej Demel                    : Mk-CCSD
   Frank Weinhold                                : gennbo (NPA and NBO analysis)
   Christopher J. Cramer and Donald G. Truhlar   : smd solvation model


 Your calculation uses the libint2 library for the computation of 2-el integrals
 For citations please refer to: http://libint.valeyev.net

 This ORCA versions uses:
   CBLAS   interface :  Fast vector & matrix operations
   LAPACKE interface :  Fast linear algebra routines
   SCALAPACK package :  Parallel linear algebra routines


Your calculation utilizes the atom-pairwise dispersion correction
with the zero-damping scheme (D30)
Cite in your paper:
S.Grimme, J.Antony, S.Ehrlich and H.Krieg, J.Chem.Phys., 132, (2010), 154104 
   

XCFun DFT library Copyright 2009-2010 Ulf Ekstrom and contributors.
See http://admol.org/xcfun for more information. This is free soft-
ware; see the source code for copying conditions. There is ABSOLUTELY
NO WARRANTY; not even for MERCHANTABILITY or FITNESS FOR A PARTICULAR
PURPOSE. For details see the documentation. Scientific users of this 
library should cite U. Ekstrom, L. Visscher, R. Bast, A. J. Thorvald-
sen and K. Ruud; J.Chem.Theor.Comp. 2010, DOI: 10.1021/ct100117s
XCFun Version 0.99 
Your calculation utilizes the basis: 6-31G(d)
   H-He, Li-Ne : W. J. Hehre, R. Ditchfield and J.A. Pople, J. Chem. Phys. 56, 2257 (1972).
                 Note: He and Ne are unpublished basis sets taken from the Gaussian program.
                 Note: Li and B from J. D. Dill and J. A. Pople, J. Chem. Phys. 62, 2921 (1975).
   Na - Ar     : M. M. Francl, W. J. Pietro, W. J. Hehre, J. S. Binkley, M. S. Gordon, 
                 D. J. DeFrees and J. A. Pople, J. Chem. Phys. 77, 3654 (1982).
   K - Zn      : V. A. Rassolov, J. A. Pople, M. A. Ratner, and T. L. Windus, J. Chem. Phys. 109, 1223 (1998).

================================================================================
                                        WARNINGS
                       Please study these warnings very carefully!
================================================================================

Warning: TCutStore was < 0. Adjusted to Thresh (uncritical)

INFO   : the flag for use of LIBINT has been found!

================================================================================
                                       INPUT FILE
================================================================================
NAME = initial11.inp
|  1> ! WB97X-D3 6-31G(d) VerySlowConv
|  2> ! KDIIS NOSOSCF
|  3> %base "Scan_11"
|  4> 
|  5> %scf
|  6> maxiter 999
|  7> end
|  8> 
|  9> * xyz 0 1
| 10> C         -4.034080323992    2.349521795282    0.042529264491
| 11> O         -2.562552909931    2.228209822388   -0.099036317303
| 12> H         -4.342027357794    3.374112868595   -0.160478063863
| 13> H         -4.335489947549    2.047398183972    1.044379443923
| 14> H         -4.449351397649    1.675118968092   -0.697828272111
| 15> H         -2.163608063085    2.817268361670    0.547433944863
| 16> **                         ****END OF INPUT****
================================================================================

                       ****************************
                       * Single Point Calculation *
                       ****************************

---------------------------------
CARTESIAN COORDINATES (ANGSTROEM)
---------------------------------
  C     -4.034080    2.349522    0.042529
  O     -2.562553    2.228210   -0.099036
  H     -4.342027    3.374113   -0.160478
  H     -4.335490    2.047398    1.044379
  H     -4.449351    1.675119   -0.697828
  H     -2.163608    2.817268    0.547434

----------------------------
CARTESIAN COORDINATES (A.U.)
----------------------------
  NO LB      ZA    FRAG     MASS         X           Y           Z
   0 C     6.0000    0    12.011   -7.623307    4.439953    0.080369
   1 O     8.0000    0    15.999   -4.842523    4.210706   -0.187152
   2 H     1.0000    0     1.008   -8.205243    6.376149   -0.303260
   3 H     1.0000    0     1.008   -8.192889    3.869022    1.973591
   4 H     1.0000    0     1.008   -8.408056    3.165516   -1.318704
   5 H     1.0000    0     1.008   -4.088627    5.323866    1.034500

--------------------------------
INTERNAL COORDINATES (ANGSTROEM)
--------------------------------
 C      0   0   0     0.000000000000     0.00000000     0.00000000
 O      1   0   0     1.483290375836     0.00000000     0.00000000
 H      1   2   0     1.088958318075   109.85902426     0.00000000
 H      1   2   3     1.088958318629   109.85902424   237.92998509
 H      1   2   3     1.084157977391   105.30445733   118.96499257
 H      2   1   3     0.961285989387   107.30268047    61.03500748

---------------------------
INTERNAL COORDINATES (A.U.)
---------------------------
 C      0   0   0     0.000000000000     0.00000000     0.00000000
 O      1   0   0     2.803012587412     0.00000000     0.00000000
 H      1   2   0     2.057832992418   109.85902426     0.00000000
 H      1   2   3     2.057832993465   109.85902424   237.92998509
 H      1   2   3     2.048761663176   105.30445733   118.96499257
 H      2   1   3     1.816567256316   107.30268047    61.03500748

---------------------
BASIS SET INFORMATION
---------------------
There are 3 groups of distinct atoms

 Group   1 Type C   : 10s4p1d contracted to 3s2p1d pattern {631/31/1}
 Group   2 Type O   : 10s4p1d contracted to 3s2p1d pattern {631/31/1}
 Group   3 Type H   : 4s contracted to 2s pattern {31}

Atom   0C    basis set group =>   1
Atom   1O    basis set group =>   2
Atom   2H    basis set group =>   3
Atom   3H    basis set group =>   3
Atom   4H    basis set group =>   3
Atom   5H    basis set group =>   3
------------------------------------------------------------------------------
                           ORCA GTO INTEGRAL CALCULATION
------------------------------------------------------------------------------

                         BASIS SET STATISTICS AND STARTUP INFO

 # of primitive gaussian shells          ...   46
 # of primitive gaussian functions       ...   70
 # of contracted shells                  ...   20
 # of contracted basis functions         ...   36
 Highest angular momentum                ...    2
 Maximum contraction depth               ...    6
 Integral package used                   ... LIBINT
 Integral threshhold            Thresh   ...  1.000e-10
 Primitive cut-off              TCut     ...  1.000e-11


------------------------------ INTEGRAL EVALUATION ----------------------------


 * One electron integrals 
 Pre-screening matrix                    ... done
 Shell pair data                         ... done (   0.000 sec)

-------------------------------------------------------------------------------
                                 ORCA SCF
-------------------------------------------------------------------------------

------------
SCF SETTINGS
------------
Hamiltonian:
 Density Functional     Method          .... DFT(GTOs)
 Exchange Functional    Exchange        .... WB97X-D3
 Correlation Functional Correlation     .... WB97X-D3
 Gradients option       PostSCFGGA      .... off
 Hybrid DFT is turned on
   Fraction HF Exchange ScalHFX         ....  0.195728
   Scaling of DF-GGA-X  ScalDFX         ....  0.000000
   Scaling of DF-GGA-C  ScalDFC         ....  1.000000
   Scaling of DF-LDA-C  ScalLDAC        ....  1.000000
   Perturbative correction              ....  0.000000
 Long-range corrected/Screened/Range-Separated Hybrid DFT is turned on
   Amount of maximum screened exact exchange              ....  0.804272
   Range separation parameter mu (erf(mu*r12)/r12)        ....  0.250000


General Settings:
 Integral files         IntName         .... Scan_11
 Hartree-Fock type      HFTyp           .... RHF
 Total Charge           Charge          ....    0
 Multiplicity           Mult            ....    1
 Number of Electrons    NEL             ....   18
 Basis Dimension        Dim             ....   36
 Nuclear Repulsion      ENuc            ....     39.4630210642 Eh

Convergence Acceleration:
 DIIS                   CNVDIIS         .... on
   Start iteration      DIISMaxIt       ....     0
   Startup error        DIISStart       ....  0.200000
   # of expansion vecs  DIISMaxEq       ....     5
   Bias factor          DIISBfac        ....   1.050
   Max. coefficient     DIISMaxC        ....  10.000
 Newton-Raphson         CNVNR           .... off
 SOSCF                  CNVSOSCF        .... off
 Level Shifting         CNVShift        .... off
 Zerner damping         CNVZerner       .... off
 Static damping         CNVDamp         .... off
 Fernandez-Rico         CNVRico         .... off

SCF Procedure:
 Maximum # iterations   MaxIter         ....   999
 SCF integral mode      SCFMode         .... Direct
   Integral package                     .... LIBINT
 Reset frequeny         DirectResetFreq ....    20
 Integral Threshold     Thresh          ....  1.000e-10 Eh
 Primitive CutOff       TCut            ....  1.000e-11 Eh

Convergence Tolerance:
 Convergence Check Mode ConvCheckMode   .... All-Criteria
 Convergence forced     ConvForced      .... 0
 Energy Change          TolE            ....  1.000e-06 Eh
 Max Density Change     TolMaxP         ....  1.000e-05
 RMS Density Change     TolRMSP         ....  1.000e-06
 DIIS Error             TolErr          ....  1.000e-06


Diagonalization of the overlap matrix:
Smallest eigenvalue                        ... 1.541e-02
Time for diagonalization                   ...    0.001 sec
Threshold for overlap eigenvalues          ... 1.000e-08
Number of eigenvalues below threshold      ... 0
Time for construction of square roots      ...    0.007 sec
Total time needed                          ...    0.008 sec

-------------------
DFT GRID GENERATION
-------------------

General Integration Accuracy     IntAcc      ...  4.340
Radial Grid Type                 RadialGrid  ... Gauss-Chebyshev
Angular Grid (max. acc.)         AngularGrid ... Lebedev-110
Angular grid pruning method      GridPruning ... 3 (G Style)
Weight generation scheme         WeightScheme... Becke
Basis function cutoff            BFCut       ...    1.0000e-10
Integration weight cutoff        WCut        ...    1.0000e-14
Grids for H and He will be reduced by one unit

# of grid points (after initial pruning)     ...   6548 (   0.0 sec)
# of grid points (after weights+screening)   ...   6363 (   0.0 sec)
nearest neighbour list constructed           ...    0.0 sec
Grid point re-assignment to atoms done       ...    0.0 sec
Grid point division into batches done        ...    0.0 sec
Reduced shell lists constructed in    0.0 sec

Total number of grid points                  ...     6363
Total number of batches                      ...      102
Average number of points per batch           ...       62
Average number of grid points per atom       ...     1060
Average number of shells per batch           ...    17.66 (88.30%)
Average number of basis functions per batch  ...    32.22 (89.51%)
Average number of large shells per batch     ...    16.05 (90.87%)
Average number of large basis fcns per batch ...    29.66 (92.05%)
Maximum spatial batch extension              ...  19.49, 25.60, 21.59 au
Average spatial batch extension              ...   4.68,  4.63,  4.42 au

Time for grid setup =    0.053 sec

------------------------------
INITIAL GUESS: MODEL POTENTIAL
------------------------------
Loading Hartree-Fock densities                     ... done
Calculating cut-offs                               ... done
Setting up the integral package                    ... done
Initializing the effective Hamiltonian             ... done
Starting the Coulomb interaction                   ... done (   0.0 sec)
Reading the grid                                   ... done
Mapping shells                                     ... done
Starting the XC term evaluation                    ... done (   0.1 sec)
  promolecular density results
     # of electrons  =     17.992112792
     EX              =    -14.410532400
     EC              =     -0.572127227
     EX+EC           =    -14.982659627
Transforming the Hamiltonian                       ... done (   0.0 sec)
Diagonalizing the Hamiltonian                      ... done (   0.0 sec)
Back transforming the eigenvectors                 ... done (   0.0 sec)
Now organizing SCF variables                       ... done
                      ------------------
                      INITIAL GUESS DONE (   0.2 sec)
                      ------------------
--------------
SCF ITERATIONS
--------------
ITER       Energy         Delta-E        Max-DP      RMS-DP      [F,P]   Gradient Norm
               ***  Starting incremental Fock matrix formation  ***
                             ****Resetting KDIIS****
                             ****Turning on KDIIS(Cayley)****
  0   -115.5963652268   0.000000000000 0.02779935  0.00201979  0.1074139   0.101194902
  1   -115.6234411776  -0.027075950769 0.01920796  0.00166169  0.0853635   0.081074825
  2   -115.6407733038  -0.017332126247 0.03333376  0.00269576  0.0703129   0.066081146
  3   -115.6613613956  -0.020588091730 0.04898203  0.00430545  0.0427620   0.040786160
  4   -115.6743702373  -0.013008841715 0.00383142  0.00039411  0.0032189   0.002498861
  5   -115.6744458516  -0.000075614336 0.00435393  0.00040970  0.0014156   0.001082049
  6   -115.6744621999  -0.000016348232 0.00052417  0.00005805  0.0003056   0.000311728
  7   -115.6744633534  -0.000001153588 0.00006896  0.00000776  0.0000285   0.000025448
                          ***Energy convergence achieved***
                           ***RMSP convergence achieved***
                           ***MAXP convergence achieved***
                    *** KDIIS BlockDiag ( 0.000 sec) ***

               *****************************************************
               *                     SUCCESS                       *
               *           SCF CONVERGED AFTER   8 CYCLES          *
               *****************************************************

Setting up the final grid:

General Integration Accuracy     IntAcc      ...  4.670
Radial Grid Type                 RadialGrid  ... Gauss-Chebyshev
Angular Grid (max. acc.)         AngularGrid ... Lebedev-302
Angular grid pruning method      GridPruning ... 3 (G Style)
Weight generation scheme         WeightScheme... Becke
Basis function cutoff            BFCut       ...    1.0000e-10
Integration weight cutoff        WCut        ...    1.0000e-14
Grids for H and He will be reduced by one unit

# of grid points (after initial pruning)     ...  26000 (   0.0 sec)
# of grid points (after weights+screening)   ...  25157 (   0.0 sec)
nearest neighbour list constructed           ...    0.0 sec
Grid point re-assignment to atoms done       ...    0.0 sec
Grid point division into batches done        ...    0.1 sec
Reduced shell lists constructed in    0.2 sec

Total number of grid points                  ...    25157
Total number of batches                      ...      397
Average number of points per batch           ...       63
Average number of grid points per atom       ...     4193
Average number of shells per batch           ...    16.24 (81.21%)
Average number of basis functions per batch  ...    29.73 (82.59%)
Average number of large shells per batch     ...    14.57 (89.68%)
Average number of large basis fcns per batch ...    26.97 (90.70%)
Maximum spatial batch extension              ...  18.47, 17.32, 16.88 au
Average spatial batch extension              ...   3.00,  3.02,  2.97 au

Final grid set up in    0.2 sec
Final integration                            ... done (   0.2 sec)
Change in XC energy                          ...    -0.000000289
Integrated number of electrons               ...    18.000009599
Previous integrated no of electrons          ...    17.996539038

----------------
TOTAL SCF ENERGY
----------------

Total Energy       :         -115.67446365 Eh           -3147.66218 eV

Components:
Nuclear Repulsion  :           39.46302106 Eh            1073.84340 eV
Electronic Energy  :         -155.13748472 Eh           -4221.50558 eV
One Electron Energy:         -235.41241174 Eh           -6405.89739 eV
Two Electron Energy:           80.27492702 Eh            2184.39182 eV

Virial components:
Potential Energy   :         -230.60005452 Eh           -6274.94650 eV
Kinetic Energy     :          114.92559087 Eh            3127.28432 eV
Virial Ratio       :            2.00651615


DFT components:
N(Alpha)           :        9.000004799361 electrons
N(Beta)            :        9.000004799361 electrons
N(Total)           :       18.000009598722 electrons
E(XC)              :      -10.636156786764 Eh       

---------------
SCF CONVERGENCE
---------------

  Last Energy change         ...   -8.8247e-09  Tolerance :   1.0000e-06
  Last MAX-Density change    ...    7.2581e-06  Tolerance :   1.0000e-05
  Last RMS-Density change    ...    7.8885e-07  Tolerance :   1.0000e-06
  Last DIIS Error            ...    3.7521e-06  Tolerance :   1.0000e-06

             **** THE GBW FILE WAS UPDATED (Scan_11.gbw) ****
             **** DENSITY FILE WAS UPDATED (Scan_11.scfp.tmp) ****
             **** ENERGY FILE WAS UPDATED (Scan_11.en.tmp) ****
----------------
ORBITAL ENERGIES
----------------

  NO   OCC          E(Eh)            E(eV) 
   0   2.0000     -19.234694      -523.4026 
   1   2.0000     -10.318524      -280.7813 
   2   2.0000      -1.105000       -30.0686 
   3   2.0000      -0.794105       -21.6087 
   4   2.0000      -0.589041       -16.0286 
   5   2.0000      -0.533854       -14.5269 
   6   2.0000      -0.511094       -13.9076 
   7   2.0000      -0.426817       -11.6143 
   8   2.0000      -0.359065        -9.7707 
   9   0.0000       0.174101         4.7375 
  10   0.0000       0.226436         6.1616 
  11   0.0000       0.261751         7.1226 
  12   0.0000       0.268685         7.3113 
  13   0.0000       0.282391         7.6843 
  14   0.0000       0.627392        17.0722 
  15   0.0000       0.664078        18.0705 
  16   0.0000       0.672928        18.3113 
  17   0.0000       0.909796        24.7568 
  18   0.0000       0.971857        26.4456 
  19   0.0000       0.988984        26.9116 
  20   0.0000       1.017192        27.6792 
  21   0.0000       1.083924        29.4951 
  22   0.0000       1.104598        30.0576 
  23   0.0000       1.142803        31.0972 
  24   0.0000       1.237060        33.6621 
  25   0.0000       1.593009        43.3480 
  26   0.0000       1.615497        43.9599 
  27   0.0000       1.746670        47.5293 
  28   0.0000       1.861793        50.6620 
  29   0.0000       2.080240        56.6062 
  30   0.0000       2.221723        60.4562 
  31   0.0000       2.252122        61.2834 
  32   0.0000       2.396923        65.2236 
  33   0.0000       2.436714        66.3064 
  34   0.0000       2.568947        69.9046 
  35   0.0000       2.886163        78.5365 

                    ********************************
                    * MULLIKEN POPULATION ANALYSIS *
                    ********************************

-----------------------
MULLIKEN ATOMIC CHARGES
-----------------------
   0 C :   -0.244654
   1 O :   -0.666742
   2 H :    0.158105
   3 H :    0.158210
   4 H :    0.186077
   5 H :    0.409004
Sum of atomic charges:    0.0000000

--------------------------------
MULLIKEN REDUCED ORBITAL CHARGES
--------------------------------
  0 C s       :     3.264514  s :     3.264514
      pz      :     1.105361  p :     2.926097
      px      :     0.718620
      py      :     1.102115
      dz2     :     0.010434  d :     0.054043
      dxz     :     0.011624
      dyz     :     0.005958
      dx2y2   :     0.014213
      dxy     :     0.011814
  1 O s       :     3.879641  s :     3.879641
      pz      :     1.714138  p :     4.761085
      px      :     1.291347
      py      :     1.755600
      dz2     :     0.003222  d :     0.026017
      dxz     :     0.005090
      dyz     :     0.007993
      dx2y2   :     0.005214
      dxy     :     0.004496
  2 H s       :     0.841895  s :     0.841895
  3 H s       :     0.841790  s :     0.841790
  4 H s       :     0.813923  s :     0.813923
  5 H s       :     0.590996  s :     0.590996


                     *******************************
                     * LOEWDIN POPULATION ANALYSIS *
                     *******************************

----------------------
LOEWDIN ATOMIC CHARGES
----------------------
   0 C :   -0.224426
   1 O :   -0.461606
   2 H :    0.118611
   3 H :    0.118307
   4 H :    0.138881
   5 H :    0.310233

-------------------------------
LOEWDIN REDUCED ORBITAL CHARGES
-------------------------------
  0 C s       :     2.986949  s :     2.986949
      pz      :     1.149538  p :     3.132338
      px      :     0.834472
      py      :     1.148328
      dz2     :     0.020040  d :     0.105140
      dxz     :     0.022665
      dyz     :     0.010344
      dx2y2   :     0.029024
      dxy     :     0.023067
  1 O s       :     3.593234  s :     3.593234
      pz      :     1.722543  p :     4.823909
      px      :     1.340086
      py      :     1.761280
      dz2     :     0.005085  d :     0.044463
      dxz     :     0.010006
      dyz     :     0.010085
      dx2y2   :     0.010258
      dxy     :     0.009030
  2 H s       :     0.881389  s :     0.881389
  3 H s       :     0.881693  s :     0.881693
  4 H s       :     0.861119  s :     0.861119
  5 H s       :     0.689767  s :     0.689767


                      *****************************
                      * MAYER POPULATION ANALYSIS *
                      *****************************

  NA   - Mulliken gross atomic population
  ZA   - Total nuclear charge
  QA   - Mulliken gross atomic charge
  VA   - Mayer's total valence
  BVA  - Mayer's bonded valence
  FA   - Mayer's free valence

  ATOM       NA         ZA         QA         VA         BVA        FA
  0 C      6.2447     6.0000    -0.2447     3.7810     3.7810    -0.0000
  1 O      8.6667     8.0000    -0.6667     1.7356     1.7356     0.0000
  2 H      0.8419     1.0000     0.1581     0.9260     0.9260    -0.0000
  3 H      0.8418     1.0000     0.1582     0.9258     0.9258    -0.0000
  4 H      0.8139     1.0000     0.1861     0.9292     0.9292    -0.0000
  5 H      0.5910     1.0000     0.4090     0.7935     0.7935     0.0000

  Mayer bond orders larger than 0.1
B(  0-C ,  1-O ) :   0.9445 B(  0-C ,  2-H ) :   0.9426 B(  0-C ,  3-H ) :   0.9424 
B(  0-C ,  4-H ) :   0.9502 B(  1-O ,  5-H ) :   0.7884 

-------
TIMINGS
-------

Total SCF time: 0 days 0 hours 0 min 4 sec 

Total time                  ....       4.257 sec
Sum of individual times     ....       4.120 sec  ( 96.8%)

Fock matrix formation       ....       3.619 sec  ( 85.0%)
  XC integration            ....       0.991 sec  ( 27.4% of F)
    Basis function eval.    ....       0.393 sec  ( 39.7% of XC)
    Density eval.           ....       0.050 sec  (  5.1% of XC)
    XC-Functional eval.     ....       0.268 sec  ( 27.1% of XC)
    XC-Potential eval.      ....       0.054 sec  (  5.4% of XC)
Diagonalization             ....       0.015 sec  (  0.3%)
Density matrix formation    ....       0.000 sec  (  0.0%)
Population analysis         ....       0.012 sec  (  0.3%)
Initial guess               ....       0.180 sec  (  4.2%)
Orbital Transformation      ....       0.000 sec  (  0.0%)
Orbital Orthonormalization  ....       0.000 sec  (  0.0%)
DIIS solution               ....       0.000 sec  (  0.0%)
Grid generation             ....       0.294 sec  (  6.9%)


-------------------------------------------------------------------------------
                          DFT DISPERSION CORRECTION                            
                                                                               
                              DFTD3 V3.1  Rev 1                                
                              USING zero damping                               
-------------------------------------------------------------------------------
The omegaB97X-D3 functional is recognized. Fit by Chai et al.
Active option DFTDOPT                   ...         3   

molecular C6(AA) [au] = 208.799766 


            DFT-D V3
 parameters
 s6 scaling factor         :     1.0000 
 rs6 scaling factor        :     1.2810 
 s8 scaling factor         :     1.0000 
 rs8 scaling factor        :     1.0940 
 Damping factor alpha6     :    14.0000 
 Damping factor alpha8     :    16.0000 
 ad hoc parameters k1-k3   :    16.0000     1.3333    -4.0000 

 Edisp/kcal,au: -0.158964650299  -0.000253326268 
 E6   /kcal   :  -0.031467082 
 E8   /kcal   :  -0.127497568 
 % E8         :  80.204981179 

-------------------------   ----------------
Dispersion correction           -0.000253326
-------------------------   ----------------


-------------------------   --------------------
FINAL SINGLE POINT ENERGY      -115.674716977478
-------------------------   --------------------


                            ***************************************
                            *     ORCA property calculations      *
                            ***************************************

                                    ---------------------
                                    Active property flags
                                    ---------------------
   (+) Dipole Moment


------------------------------------------------------------------------------
                       ORCA ELECTRIC PROPERTIES CALCULATION
------------------------------------------------------------------------------

Dipole Moment Calculation                       ... on
Quadrupole Moment Calculation                   ... off
Polarizability Calculation                      ... off
GBWName                                         ... Scan_11.gbw
Electron density file                           ... Scan_11.scfp.tmp

-------------
DIPOLE MOMENT
-------------
                                X             Y             Z
Electronic contribution:      1.66002      -0.22426      -0.25734
Nuclear contribution   :     -2.05312       0.64920       0.72600
                        -----------------------------------------
Total Dipole Moment    :     -0.39309       0.42494       0.46866
                        -----------------------------------------
Magnitude (a.u.)       :      0.74481
Magnitude (Debye)      :      1.89316


Timings for individual modules:

Sum of individual times         ...        4.748 sec (=   0.079 min)
GTO integral calculation        ...        0.436 sec (=   0.007 min)   9.2 %
SCF iterations                  ...        4.312 sec (=   0.072 min)  90.8 %
                             ****ORCA TERMINATED NORMALLY****
TOTAL RUN TIME: 0 days 0 hours 0 minutes 5 seconds 162 msec
