
                                 *****************
                                 * O   R   C   A *
                                 *****************

           --- An Ab Initio, DFT and Semiempirical electronic structure package ---

                  #######################################################
                  #                        -***-                        #
                  #  Department of molecular theory and spectroscopy    #
                  #              Directorship: Frank Neese              #
                  # Max Planck Institute for Chemical Energy Conversion #
                  #                  D-45470 Muelheim/Ruhr              #
                  #                       Germany                       #
                  #                                                     #
                  #                  All rights reserved                #
                  #                        -***-                        #
                  #######################################################


                         Program Version 4.0.0.2 - RELEASE -


 With contributions from (in alphabetic order):
   Daniel Aravena         : Magnetic Properties
   Michael Atanasov       : Ab Initio Ligand Field Theory
   Ute Becker             : Parallelization
   Martin Brehm           : Molecular dynamics
   Dmytro Bykov           : SCF Hessian
   Vijay G. Chilkuri      : MRCI spin determinant printing
   Dipayan Datta          : RHF DLPNO-CCSD density
   Achintya Kumar Dutta   : EOM-CC, STEOM-CC
   Dmitry Ganyushin       : Spin-Orbit,Spin-Spin,Magnetic field MRCI
   Yang Guo               : DLPNO-NEVPT2, CIM, IAO-localization
   Andreas Hansen         : Spin unrestricted coupled pair/coupled cluster methods
   Lee Huntington         : MR-EOM, pCC
   Robert Izsak           : Overlap fitted RIJCOSX, COSX-SCS-MP3, EOM
   Christian Kollmar      : KDIIS, OOCD, Brueckner-CCSD(T), CCSD density
   Simone Kossmann        : Meta GGA functionals, TD-DFT gradient, OOMP2, MP2 Hessian
   Martin Krupicka        : AUTO-CI
   Dagmar Lenk            : GEPOL surface
   Dimitrios Liakos       : Extrapolation schemes; parallel MDCI
   Dimitrios Manganas     : ROCIS; embedding schemes
   Dimitrios Pantazis     : SARC Basis sets
   Taras Petrenko         : DFT Hessian,TD-DFT gradient, ASA, ECA, R-Raman, ABS, FL, XAS/XES, NRVS
   Peter Pinski           : DLPNO-MP2
   Christoph Reimann      : Effective Core Potentials
   Marius Retegan         : Local ZFS, SOC
   Christoph Riplinger    : Optimizer, TS searches, QM/MM, DLPNO-CCSD(T), (RO)-DLPNO pert. Triples
   Tobias Risthaus        : Range-separated hybrids, TD-DFT gradient, RPA, STAB
   Michael Roemelt        : Restricted open shell CIS
   Masaaki Saitow         : Open-shell DLPNO
   Barbara Sandhoefer     : DKH picture change effects
   Kantharuban Sivalingam : CASSCF convergence, NEVPT2, FIC-MRCI
   Georgi Stoychev        : AutoAux
   Boris Wezisla          : Elementary symmetry handling
   Frank Wennmohs         : Technical directorship


 We gratefully acknowledge several colleagues who have allowed us to
 interface, adapt or use parts of their codes:
   Stefan Grimme, W. Hujo, H. Kruse,             : VdW corrections, initial TS optimization,
                  C. Bannwarth                     DFT functionals, gCP, sTDA/sTD-DF
   Ed Valeev                                     : LibInt (2-el integral package), F12 methods
   Garnet Chan, S. Sharma, J. Yang, R. Olivares  : DMRG
   Ulf Ekstrom                                   : XCFun DFT Library
   Mihaly Kallay                                 : mrcc  (arbitrary order and MRCC methods)
   Jiri Pittner, Ondrej Demel                    : Mk-CCSD
   Frank Weinhold                                : gennbo (NPA and NBO analysis)
   Christopher J. Cramer and Donald G. Truhlar   : smd solvation model


 Your calculation uses the libint2 library for the computation of 2-el integrals
 For citations please refer to: http://libint.valeyev.net

 This ORCA versions uses:
   CBLAS   interface :  Fast vector & matrix operations
   LAPACKE interface :  Fast linear algebra routines
   SCALAPACK package :  Parallel linear algebra routines


Your calculation utilizes the atom-pairwise dispersion correction
with the zero-damping scheme (D30)
Cite in your paper:
S.Grimme, J.Antony, S.Ehrlich and H.Krieg, J.Chem.Phys., 132, (2010), 154104 
   

XCFun DFT library Copyright 2009-2010 Ulf Ekstrom and contributors.
See http://admol.org/xcfun for more information. This is free soft-
ware; see the source code for copying conditions. There is ABSOLUTELY
NO WARRANTY; not even for MERCHANTABILITY or FITNESS FOR A PARTICULAR
PURPOSE. For details see the documentation. Scientific users of this 
library should cite U. Ekstrom, L. Visscher, R. Bast, A. J. Thorvald-
sen and K. Ruud; J.Chem.Theor.Comp. 2010, DOI: 10.1021/ct100117s
XCFun Version 0.99 
Your calculation utilizes the basis: 6-31G(d)
   H-He, Li-Ne : W. J. Hehre, R. Ditchfield and J.A. Pople, J. Chem. Phys. 56, 2257 (1972).
                 Note: He and Ne are unpublished basis sets taken from the Gaussian program.
                 Note: Li and B from J. D. Dill and J. A. Pople, J. Chem. Phys. 62, 2921 (1975).
   Na - Ar     : M. M. Francl, W. J. Pietro, W. J. Hehre, J. S. Binkley, M. S. Gordon, 
                 D. J. DeFrees and J. A. Pople, J. Chem. Phys. 77, 3654 (1982).
   K - Zn      : V. A. Rassolov, J. A. Pople, M. A. Ratner, and T. L. Windus, J. Chem. Phys. 109, 1223 (1998).

================================================================================
                                        WARNINGS
                       Please study these warnings very carefully!
================================================================================

Warning: TCutStore was < 0. Adjusted to Thresh (uncritical)

INFO   : the flag for use of LIBINT has been found!

================================================================================
                                       INPUT FILE
================================================================================
NAME = initial12.inp
|  1> ! WB97X-D3 6-31G(d) VerySlowConv
|  2> ! KDIIS NOSOSCF
|  3> %base "Scan_12"
|  4> 
|  5> %scf
|  6> maxiter 999
|  7> end
|  8> 
|  9> * xyz 0 1
| 10> C         -4.069279439373    2.349835691629    0.043065894155
| 11> O         -2.521729603804    2.225718657005   -0.102000936991
| 12> H         -4.345885640884    3.377932342369   -0.162686448743
| 13> H         -4.339316668794    2.044812405830    1.047987996183
| 14> H         -4.460747537848    1.671387855735   -0.701874908755
| 15> H         -2.150151109296    2.821943047431    0.552508404149
| 16> **                         ****END OF INPUT****
================================================================================

                       ****************************
                       * Single Point Calculation *
                       ****************************

---------------------------------
CARTESIAN COORDINATES (ANGSTROEM)
---------------------------------
  C     -4.069279    2.349836    0.043066
  O     -2.521730    2.225719   -0.102001
  H     -4.345886    3.377932   -0.162686
  H     -4.339317    2.044812    1.047988
  H     -4.460748    1.671388   -0.701875
  H     -2.150151    2.821943    0.552508

----------------------------
CARTESIAN COORDINATES (A.U.)
----------------------------
  NO LB      ZA    FRAG     MASS         X           Y           Z
   0 C     6.0000    0    12.011   -7.689824    4.440546    0.081383
   1 O     8.0000    0    15.999   -4.765378    4.205999   -0.192754
   2 H     1.0000    0     1.008   -8.212534    6.383367   -0.307433
   3 H     1.0000    0     1.008   -8.200120    3.864135    1.980410
   4 H     1.0000    0     1.008   -8.429591    3.158465   -1.326351
   5 H     1.0000    0     1.008   -4.063197    5.332700    1.044090

--------------------------------
INTERNAL COORDINATES (ANGSTROEM)
--------------------------------
 C      0   0   0     0.000000000000     0.00000000     0.00000000
 O      1   0   0     1.559281859496     0.00000000     0.00000000
 H      1   2   0     1.084355910476   108.11859332     0.00000000
 H      1   2   3     1.084355910805   108.11859333   238.21936708
 H      1   2   3     1.080960470134   104.20253333   119.10968354
 H      2   1   3     0.960175285539   105.73770465    60.89031647

---------------------------
INTERNAL COORDINATES (A.U.)
---------------------------
 C      0   0   0     0.000000000000     0.00000000     0.00000000
 O      1   0   0     2.946615680038     0.00000000     0.00000000
 H      1   2   0     2.049135702499   108.11859332     0.00000000
 H      1   2   3     2.049135703120   108.11859333   238.21936708
 H      1   2   3     2.042719250149   104.20253333   119.10968354
 H      2   1   3     1.814468330228   105.73770465    60.89031647

---------------------
BASIS SET INFORMATION
---------------------
There are 3 groups of distinct atoms

 Group   1 Type C   : 10s4p1d contracted to 3s2p1d pattern {631/31/1}
 Group   2 Type O   : 10s4p1d contracted to 3s2p1d pattern {631/31/1}
 Group   3 Type H   : 4s contracted to 2s pattern {31}

Atom   0C    basis set group =>   1
Atom   1O    basis set group =>   2
Atom   2H    basis set group =>   3
Atom   3H    basis set group =>   3
Atom   4H    basis set group =>   3
Atom   5H    basis set group =>   3
------------------------------------------------------------------------------
                           ORCA GTO INTEGRAL CALCULATION
------------------------------------------------------------------------------

                         BASIS SET STATISTICS AND STARTUP INFO

 # of primitive gaussian shells          ...   46
 # of primitive gaussian functions       ...   70
 # of contracted shells                  ...   20
 # of contracted basis functions         ...   36
 Highest angular momentum                ...    2
 Maximum contraction depth               ...    6
 Integral package used                   ... LIBINT
 Integral threshhold            Thresh   ...  1.000e-10
 Primitive cut-off              TCut     ...  1.000e-11


------------------------------ INTEGRAL EVALUATION ----------------------------


 * One electron integrals 
 Pre-screening matrix                    ... done
 Shell pair data                         ... done (   0.000 sec)

-------------------------------------------------------------------------------
                                 ORCA SCF
-------------------------------------------------------------------------------

------------
SCF SETTINGS
------------
Hamiltonian:
 Density Functional     Method          .... DFT(GTOs)
 Exchange Functional    Exchange        .... WB97X-D3
 Correlation Functional Correlation     .... WB97X-D3
 Gradients option       PostSCFGGA      .... off
 Hybrid DFT is turned on
   Fraction HF Exchange ScalHFX         ....  0.195728
   Scaling of DF-GGA-X  ScalDFX         ....  0.000000
   Scaling of DF-GGA-C  ScalDFC         ....  1.000000
   Scaling of DF-LDA-C  ScalLDAC        ....  1.000000
   Perturbative correction              ....  0.000000
 Long-range corrected/Screened/Range-Separated Hybrid DFT is turned on
   Amount of maximum screened exact exchange              ....  0.804272
   Range separation parameter mu (erf(mu*r12)/r12)        ....  0.250000


General Settings:
 Integral files         IntName         .... Scan_12
 Hartree-Fock type      HFTyp           .... RHF
 Total Charge           Charge          ....    0
 Multiplicity           Mult            ....    1
 Number of Electrons    NEL             ....   18
 Basis Dimension        Dim             ....   36
 Nuclear Repulsion      ENuc            ....     38.4966475211 Eh

Convergence Acceleration:
 DIIS                   CNVDIIS         .... on
   Start iteration      DIISMaxIt       ....     0
   Startup error        DIISStart       ....  0.200000
   # of expansion vecs  DIISMaxEq       ....     5
   Bias factor          DIISBfac        ....   1.050
   Max. coefficient     DIISMaxC        ....  10.000
 Newton-Raphson         CNVNR           .... off
 SOSCF                  CNVSOSCF        .... off
 Level Shifting         CNVShift        .... off
 Zerner damping         CNVZerner       .... off
 Static damping         CNVDamp         .... off
 Fernandez-Rico         CNVRico         .... off

SCF Procedure:
 Maximum # iterations   MaxIter         ....   999
 SCF integral mode      SCFMode         .... Direct
   Integral package                     .... LIBINT
 Reset frequeny         DirectResetFreq ....    20
 Integral Threshold     Thresh          ....  1.000e-10 Eh
 Primitive CutOff       TCut            ....  1.000e-11 Eh

Convergence Tolerance:
 Convergence Check Mode ConvCheckMode   .... All-Criteria
 Convergence forced     ConvForced      .... 0
 Energy Change          TolE            ....  1.000e-06 Eh
 Max Density Change     TolMaxP         ....  1.000e-05
 RMS Density Change     TolRMSP         ....  1.000e-06
 DIIS Error             TolErr          ....  1.000e-06


Diagonalization of the overlap matrix:
Smallest eigenvalue                        ... 1.644e-02
Time for diagonalization                   ...    0.001 sec
Threshold for overlap eigenvalues          ... 1.000e-08
Number of eigenvalues below threshold      ... 0
Time for construction of square roots      ...    0.008 sec
Total time needed                          ...    0.008 sec

-------------------
DFT GRID GENERATION
-------------------

General Integration Accuracy     IntAcc      ...  4.340
Radial Grid Type                 RadialGrid  ... Gauss-Chebyshev
Angular Grid (max. acc.)         AngularGrid ... Lebedev-110
Angular grid pruning method      GridPruning ... 3 (G Style)
Weight generation scheme         WeightScheme... Becke
Basis function cutoff            BFCut       ...    1.0000e-10
Integration weight cutoff        WCut        ...    1.0000e-14
Grids for H and He will be reduced by one unit

# of grid points (after initial pruning)     ...   6548 (   0.0 sec)
# of grid points (after weights+screening)   ...   6366 (   0.0 sec)
nearest neighbour list constructed           ...    0.0 sec
Grid point re-assignment to atoms done       ...    0.0 sec
Grid point division into batches done        ...    0.0 sec
Reduced shell lists constructed in    0.0 sec

Total number of grid points                  ...     6366
Total number of batches                      ...      103
Average number of points per batch           ...       61
Average number of grid points per atom       ...     1061
Average number of shells per batch           ...    17.62 (88.12%)
Average number of basis functions per batch  ...    32.18 (89.40%)
Average number of large shells per batch     ...    15.95 (90.51%)
Average number of large basis fcns per batch ...    29.41 (91.40%)
Maximum spatial batch extension              ...  19.49, 25.60, 21.59 au
Average spatial batch extension              ...   4.63,  4.62,  4.41 au

Time for grid setup =    0.052 sec

------------------------------
INITIAL GUESS: MODEL POTENTIAL
------------------------------
Loading Hartree-Fock densities                     ... done
Calculating cut-offs                               ... done
Setting up the integral package                    ... done
Initializing the effective Hamiltonian             ... done
Starting the Coulomb interaction                   ... done (   0.0 sec)
Reading the grid                                   ... done
Mapping shells                                     ... done
Starting the XC term evaluation                    ... done (   0.0 sec)
  promolecular density results
     # of electrons  =     17.992585232
     EX              =    -14.393567468
     EC              =     -0.568997812
     EX+EC           =    -14.962565280
Transforming the Hamiltonian                       ... done (   0.0 sec)
Diagonalizing the Hamiltonian                      ... done (   0.0 sec)
Back transforming the eigenvectors                 ... done (   0.0 sec)
Now organizing SCF variables                       ... done
                      ------------------
                      INITIAL GUESS DONE (   0.2 sec)
                      ------------------
--------------
SCF ITERATIONS
--------------
ITER       Energy         Delta-E        Max-DP      RMS-DP      [F,P]   Gradient Norm
               ***  Starting incremental Fock matrix formation  ***
                             ****Resetting KDIIS****
                             ****Turning on KDIIS(Cayley)****
  0   -115.5903763737   0.000000000000 0.02819859  0.00201721  0.1069008   0.100530166
  1   -115.6172397798  -0.026863406161 0.01851675  0.00162373  0.0844146   0.080196663
  2   -115.6340393239  -0.016799544041 0.03201936  0.00260433  0.0696813   0.065403171
  3   -115.6539602229  -0.019920899059 0.04798775  0.00419320  0.0426698   0.040522933
  4   -115.6666926016  -0.012732378655 0.00319323  0.00036865  0.0030198   0.002548807
  5   -115.6667663038  -0.000073702239 0.00436516  0.00046183  0.0014799   0.001214813
  6   -115.6667872564  -0.000020952563 0.00053053  0.00006310  0.0003410   0.000346788
  7   -115.6667886518  -0.000001395475 0.00005215  0.00000528  0.0000401   0.000034110
                          ***Energy convergence achieved***
  8   -115.6667886662  -0.000000014366 0.00001283  0.00000148  0.0000081   0.000007145
                           ***RMSP convergence achieved***
                           ***MAXP convergence achieved***
                    *** KDIIS BlockDiag ( 0.000 sec) ***

               *****************************************************
               *                     SUCCESS                       *
               *           SCF CONVERGED AFTER   9 CYCLES          *
               *****************************************************

Setting up the final grid:

General Integration Accuracy     IntAcc      ...  4.670
Radial Grid Type                 RadialGrid  ... Gauss-Chebyshev
Angular Grid (max. acc.)         AngularGrid ... Lebedev-302
Angular grid pruning method      GridPruning ... 3 (G Style)
Weight generation scheme         WeightScheme... Becke
Basis function cutoff            BFCut       ...    1.0000e-10
Integration weight cutoff        WCut        ...    1.0000e-14
Grids for H and He will be reduced by one unit

# of grid points (after initial pruning)     ...  26000 (   0.0 sec)
# of grid points (after weights+screening)   ...  25161 (   0.0 sec)
nearest neighbour list constructed           ...    0.0 sec
Grid point re-assignment to atoms done       ...    0.0 sec
Grid point division into batches done        ...    0.1 sec
Reduced shell lists constructed in    0.2 sec

Total number of grid points                  ...    25161
Total number of batches                      ...      397
Average number of points per batch           ...       63
Average number of grid points per atom       ...     4194
Average number of shells per batch           ...    16.21 (81.03%)
Average number of basis functions per batch  ...    29.69 (82.48%)
Average number of large shells per batch     ...    14.49 (89.44%)
Average number of large basis fcns per batch ...    26.87 (90.48%)
Maximum spatial batch extension              ...  18.53, 17.32, 16.88 au
Average spatial batch extension              ...   3.05,  3.02,  2.98 au

Final grid set up in    0.2 sec
Final integration                            ... done (   0.3 sec)
Change in XC energy                          ...    -0.000075632
Integrated number of electrons               ...    18.000012931
Previous integrated no of electrons          ...    17.996581754

----------------
TOTAL SCF ENERGY
----------------

Total Energy       :         -115.66686430 Eh           -3147.45539 eV

Components:
Nuclear Repulsion  :           38.49664752 Eh            1047.54704 eV
Electronic Energy  :         -154.16351182 Eh           -4195.00243 eV
One Electron Energy:         -233.53958738 Eh           -6354.93525 eV
Two Electron Energy:           79.37607556 Eh            2159.93282 eV

Virial components:
Potential Energy   :         -230.51950265 Eh           -6272.75457 eV
Kinetic Energy     :          114.85263835 Eh            3125.29918 eV
Virial Ratio       :            2.00708931


DFT components:
N(Alpha)           :        9.000006465304 electrons
N(Beta)            :        9.000006465304 electrons
N(Total)           :       18.000012930609 electrons
E(XC)              :      -10.617742742588 Eh       

---------------
SCF CONVERGENCE
---------------

  Last Energy change         ...   -6.6868e-10  Tolerance :   1.0000e-06
  Last MAX-Density change    ...    2.2569e-06  Tolerance :   1.0000e-05
  Last RMS-Density change    ...    2.3918e-07  Tolerance :   1.0000e-06
  Last DIIS Error            ...    1.0855e-06  Tolerance :   1.0000e-06

             **** THE GBW FILE WAS UPDATED (Scan_12.gbw) ****
             **** DENSITY FILE WAS UPDATED (Scan_12.scfp.tmp) ****
             **** ENERGY FILE WAS UPDATED (Scan_12.en.tmp) ****
----------------
ORBITAL ENERGIES
----------------

  NO   OCC          E(Eh)            E(eV) 
   0   2.0000     -19.232535      -523.3439 
   1   2.0000     -10.323498      -280.9167 
   2   2.0000      -1.086454       -29.5639 
   3   2.0000      -0.797676       -21.7059 
   4   2.0000      -0.575823       -15.6689 
   5   2.0000      -0.533555       -14.5188 
   6   2.0000      -0.505178       -13.7466 
   7   2.0000      -0.427375       -11.6295 
   8   2.0000      -0.358132        -9.7453 
   9   0.0000       0.165857         4.5132 
  10   0.0000       0.215113         5.8535 
  11   0.0000       0.258373         7.0307 
  12   0.0000       0.266341         7.2475 
  13   0.0000       0.268946         7.3184 
  14   0.0000       0.619264        16.8510 
  15   0.0000       0.658352        17.9147 
  16   0.0000       0.666709        18.1421 
  17   0.0000       0.920332        25.0435 
  18   0.0000       0.976461        26.5708 
  19   0.0000       0.985620        26.8201 
  20   0.0000       1.011720        27.5303 
  21   0.0000       1.083451        29.4822 
  22   0.0000       1.103499        30.0277 
  23   0.0000       1.152001        31.3475 
  24   0.0000       1.238875        33.7115 
  25   0.0000       1.600027        43.5389 
  26   0.0000       1.611603        43.8540 
  27   0.0000       1.737390        47.2768 
  28   0.0000       1.875513        51.0353 
  29   0.0000       1.989183        54.1284 
  30   0.0000       2.213401        60.2297 
  31   0.0000       2.242866        61.0315 
  32   0.0000       2.352440        64.0132 
  33   0.0000       2.377977        64.7080 
  34   0.0000       2.572139        69.9915 
  35   0.0000       2.860313        77.8331 

                    ********************************
                    * MULLIKEN POPULATION ANALYSIS *
                    ********************************

-----------------------
MULLIKEN ATOMIC CHARGES
-----------------------
   0 C :   -0.261030
   1 O :   -0.677736
   2 H :    0.169295
   3 H :    0.169382
   4 H :    0.193265
   5 H :    0.406824
Sum of atomic charges:   -0.0000000

--------------------------------
MULLIKEN REDUCED ORBITAL CHARGES
--------------------------------
  0 C s       :     3.288548  s :     3.288548
      pz      :     1.108477  p :     2.925556
      px      :     0.711453
      py      :     1.105626
      dz2     :     0.009884  d :     0.046926
      dxz     :     0.009181
      dyz     :     0.006125
      dx2y2   :     0.012439
      dxy     :     0.009297
  1 O s       :     3.896105  s :     3.896105
      pz      :     1.711374  p :     4.757075
      px      :     1.290666
      py      :     1.755036
      dz2     :     0.003213  d :     0.024556
      dxz     :     0.004315
      dyz     :     0.008194
      dx2y2   :     0.005068
      dxy     :     0.003765
  2 H s       :     0.830705  s :     0.830705
  3 H s       :     0.830618  s :     0.830618
  4 H s       :     0.806735  s :     0.806735
  5 H s       :     0.593176  s :     0.593176


                     *******************************
                     * LOEWDIN POPULATION ANALYSIS *
                     *******************************

----------------------
LOEWDIN ATOMIC CHARGES
----------------------
   0 C :   -0.217322
   1 O :   -0.485290
   2 H :    0.126572
   3 H :    0.126284
   4 H :    0.143508
   5 H :    0.306247

-------------------------------
LOEWDIN REDUCED ORBITAL CHARGES
-------------------------------
  0 C s       :     3.006497  s :     3.006497
      pz      :     1.155147  p :     3.122314
      px      :     0.813006
      py      :     1.154160
      dz2     :     0.018619  d :     0.088511
      dxz     :     0.017001
      dyz     :     0.010780
      dx2y2   :     0.024866
      dxy     :     0.017245
  1 O s       :     3.629041  s :     3.629041
      pz      :     1.722552  p :     4.816904
      px      :     1.331004
      py      :     1.763348
      dz2     :     0.004769  d :     0.039345
      dxz     :     0.007886
      dyz     :     0.010485
      dx2y2   :     0.009178
      dxy     :     0.007027
  2 H s       :     0.873428  s :     0.873428
  3 H s       :     0.873716  s :     0.873716
  4 H s       :     0.856492  s :     0.856492
  5 H s       :     0.693753  s :     0.693753


                      *****************************
                      * MAYER POPULATION ANALYSIS *
                      *****************************

  NA   - Mulliken gross atomic population
  ZA   - Total nuclear charge
  QA   - Mulliken gross atomic charge
  VA   - Mayer's total valence
  BVA  - Mayer's bonded valence
  FA   - Mayer's free valence

  ATOM       NA         ZA         QA         VA         BVA        FA
  0 C      6.2610     6.0000    -0.2610     3.7714     3.7714     0.0000
  1 O      8.6777     8.0000    -0.6777     1.7244     1.7244    -0.0000
  2 H      0.8307     1.0000     0.1693     0.9247     0.9247     0.0000
  3 H      0.8306     1.0000     0.1694     0.9245     0.9245     0.0000
  4 H      0.8067     1.0000     0.1933     0.9283     0.9283     0.0000
  5 H      0.5932     1.0000     0.4068     0.7939     0.7939     0.0000

  Mayer bond orders larger than 0.1
B(  0-C ,  1-O ) :   0.9364 B(  0-C ,  2-H ) :   0.9421 B(  0-C ,  3-H ) :   0.9419 
B(  0-C ,  4-H ) :   0.9491 B(  1-O ,  5-H ) :   0.7898 

-------
TIMINGS
-------

Total SCF time: 0 days 0 hours 0 min 4 sec 

Total time                  ....       4.604 sec
Sum of individual times     ....       4.449 sec  ( 96.6%)

Fock matrix formation       ....       3.941 sec  ( 85.6%)
  XC integration            ....       1.061 sec  ( 26.9% of F)
    Basis function eval.    ....       0.400 sec  ( 37.7% of XC)
    Density eval.           ....       0.052 sec  (  4.9% of XC)
    XC-Functional eval.     ....       0.282 sec  ( 26.6% of XC)
    XC-Potential eval.      ....       0.053 sec  (  5.0% of XC)
Diagonalization             ....       0.035 sec  (  0.8%)
Density matrix formation    ....       0.000 sec  (  0.0%)
Population analysis         ....       0.018 sec  (  0.4%)
Initial guess               ....       0.168 sec  (  3.6%)
Orbital Transformation      ....       0.000 sec  (  0.0%)
Orbital Orthonormalization  ....       0.000 sec  (  0.0%)
DIIS solution               ....       0.000 sec  (  0.0%)
Grid generation             ....       0.287 sec  (  6.2%)


-------------------------------------------------------------------------------
                          DFT DISPERSION CORRECTION                            
                                                                               
                              DFTD3 V3.1  Rev 1                                
                              USING zero damping                               
-------------------------------------------------------------------------------
The omegaB97X-D3 functional is recognized. Fit by Chai et al.
Active option DFTDOPT                   ...         3   

molecular C6(AA) [au] = 209.022020 


            DFT-D V3
 parameters
 s6 scaling factor         :     1.0000 
 rs6 scaling factor        :     1.2810 
 s8 scaling factor         :     1.0000 
 rs8 scaling factor        :     1.0940 
 Damping factor alpha6     :    14.0000 
 Damping factor alpha8     :    16.0000 
 ad hoc parameters k1-k3   :    16.0000     1.3333    -4.0000 

 Edisp/kcal,au: -0.173113099652  -0.000275873255 
 E6   /kcal   :  -0.034287853 
 E8   /kcal   :  -0.138825246 
 % E8         :  80.193380193 

-------------------------   ----------------
Dispersion correction           -0.000275873
-------------------------   ----------------


-------------------------   --------------------
FINAL SINGLE POINT ENERGY      -115.667140172374
-------------------------   --------------------


                            ***************************************
                            *     ORCA property calculations      *
                            ***************************************

                                    ---------------------
                                    Active property flags
                                    ---------------------
   (+) Dipole Moment


------------------------------------------------------------------------------
                       ORCA ELECTRIC PROPERTIES CALCULATION
------------------------------------------------------------------------------

Dipole Moment Calculation                       ... on
Quadrupole Moment Calculation                   ... off
Polarizability Calculation                      ... off
GBWName                                         ... Scan_12.gbw
Electron density file                           ... Scan_12.scfp.tmp

-------------
DIPOLE MOMENT
-------------
                                X             Y             Z
Electronic contribution:      1.58920      -0.22271      -0.25522
Nuclear contribution   :     -2.08421       0.65519       0.73277
                        -----------------------------------------
Total Dipole Moment    :     -0.49500       0.43248       0.47754
                        -----------------------------------------
Magnitude (a.u.)       :      0.81247
Magnitude (Debye)      :      2.06515


Timings for individual modules:

Sum of individual times         ...        5.069 sec (=   0.084 min)
GTO integral calculation        ...        0.418 sec (=   0.007 min)   8.3 %
SCF iterations                  ...        4.651 sec (=   0.078 min)  91.7 %
                             ****ORCA TERMINATED NORMALLY****
TOTAL RUN TIME: 0 days 0 hours 0 minutes 5 seconds 507 msec
