
                                 *****************
                                 * O   R   C   A *
                                 *****************

           --- An Ab Initio, DFT and Semiempirical electronic structure package ---

                  #######################################################
                  #                        -***-                        #
                  #  Department of molecular theory and spectroscopy    #
                  #              Directorship: Frank Neese              #
                  # Max Planck Institute for Chemical Energy Conversion #
                  #                  D-45470 Muelheim/Ruhr              #
                  #                       Germany                       #
                  #                                                     #
                  #                  All rights reserved                #
                  #                        -***-                        #
                  #######################################################


                         Program Version 4.0.0.2 - RELEASE -


 With contributions from (in alphabetic order):
   Daniel Aravena         : Magnetic Properties
   Michael Atanasov       : Ab Initio Ligand Field Theory
   Ute Becker             : Parallelization
   Martin Brehm           : Molecular dynamics
   Dmytro Bykov           : SCF Hessian
   Vijay G. Chilkuri      : MRCI spin determinant printing
   Dipayan Datta          : RHF DLPNO-CCSD density
   Achintya Kumar Dutta   : EOM-CC, STEOM-CC
   Dmitry Ganyushin       : Spin-Orbit,Spin-Spin,Magnetic field MRCI
   Yang Guo               : DLPNO-NEVPT2, CIM, IAO-localization
   Andreas Hansen         : Spin unrestricted coupled pair/coupled cluster methods
   Lee Huntington         : MR-EOM, pCC
   Robert Izsak           : Overlap fitted RIJCOSX, COSX-SCS-MP3, EOM
   Christian Kollmar      : KDIIS, OOCD, Brueckner-CCSD(T), CCSD density
   Simone Kossmann        : Meta GGA functionals, TD-DFT gradient, OOMP2, MP2 Hessian
   Martin Krupicka        : AUTO-CI
   Dagmar Lenk            : GEPOL surface
   Dimitrios Liakos       : Extrapolation schemes; parallel MDCI
   Dimitrios Manganas     : ROCIS; embedding schemes
   Dimitrios Pantazis     : SARC Basis sets
   Taras Petrenko         : DFT Hessian,TD-DFT gradient, ASA, ECA, R-Raman, ABS, FL, XAS/XES, NRVS
   Peter Pinski           : DLPNO-MP2
   Christoph Reimann      : Effective Core Potentials
   Marius Retegan         : Local ZFS, SOC
   Christoph Riplinger    : Optimizer, TS searches, QM/MM, DLPNO-CCSD(T), (RO)-DLPNO pert. Triples
   Tobias Risthaus        : Range-separated hybrids, TD-DFT gradient, RPA, STAB
   Michael Roemelt        : Restricted open shell CIS
   Masaaki Saitow         : Open-shell DLPNO
   Barbara Sandhoefer     : DKH picture change effects
   Kantharuban Sivalingam : CASSCF convergence, NEVPT2, FIC-MRCI
   Georgi Stoychev        : AutoAux
   Boris Wezisla          : Elementary symmetry handling
   Frank Wennmohs         : Technical directorship


 We gratefully acknowledge several colleagues who have allowed us to
 interface, adapt or use parts of their codes:
   Stefan Grimme, W. Hujo, H. Kruse,             : VdW corrections, initial TS optimization,
                  C. Bannwarth                     DFT functionals, gCP, sTDA/sTD-DF
   Ed Valeev                                     : LibInt (2-el integral package), F12 methods
   Garnet Chan, S. Sharma, J. Yang, R. Olivares  : DMRG
   Ulf Ekstrom                                   : XCFun DFT Library
   Mihaly Kallay                                 : mrcc  (arbitrary order and MRCC methods)
   Jiri Pittner, Ondrej Demel                    : Mk-CCSD
   Frank Weinhold                                : gennbo (NPA and NBO analysis)
   Christopher J. Cramer and Donald G. Truhlar   : smd solvation model


 Your calculation uses the libint2 library for the computation of 2-el integrals
 For citations please refer to: http://libint.valeyev.net

 This ORCA versions uses:
   CBLAS   interface :  Fast vector & matrix operations
   LAPACKE interface :  Fast linear algebra routines
   SCALAPACK package :  Parallel linear algebra routines


Your calculation utilizes the atom-pairwise dispersion correction
with the zero-damping scheme (D30)
Cite in your paper:
S.Grimme, J.Antony, S.Ehrlich and H.Krieg, J.Chem.Phys., 132, (2010), 154104 
   

XCFun DFT library Copyright 2009-2010 Ulf Ekstrom and contributors.
See http://admol.org/xcfun for more information. This is free soft-
ware; see the source code for copying conditions. There is ABSOLUTELY
NO WARRANTY; not even for MERCHANTABILITY or FITNESS FOR A PARTICULAR
PURPOSE. For details see the documentation. Scientific users of this 
library should cite U. Ekstrom, L. Visscher, R. Bast, A. J. Thorvald-
sen and K. Ruud; J.Chem.Theor.Comp. 2010, DOI: 10.1021/ct100117s
XCFun Version 0.99 
Your calculation utilizes the basis: 6-31G(d)
   H-He, Li-Ne : W. J. Hehre, R. Ditchfield and J.A. Pople, J. Chem. Phys. 56, 2257 (1972).
                 Note: He and Ne are unpublished basis sets taken from the Gaussian program.
                 Note: Li and B from J. D. Dill and J. A. Pople, J. Chem. Phys. 62, 2921 (1975).
   Na - Ar     : M. M. Francl, W. J. Pietro, W. J. Hehre, J. S. Binkley, M. S. Gordon, 
                 D. J. DeFrees and J. A. Pople, J. Chem. Phys. 77, 3654 (1982).
   K - Zn      : V. A. Rassolov, J. A. Pople, M. A. Ratner, and T. L. Windus, J. Chem. Phys. 109, 1223 (1998).

================================================================================
                                        WARNINGS
                       Please study these warnings very carefully!
================================================================================

Warning: TCutStore was < 0. Adjusted to Thresh (uncritical)

INFO   : the flag for use of LIBINT has been found!

================================================================================
                                       INPUT FILE
================================================================================
NAME = initial13.inp
|  1> ! WB97X-D3 6-31G(d) VerySlowConv
|  2> ! KDIIS NOSOSCF
|  3> %base "Scan_13"
|  4> 
|  5> %scf
|  6> maxiter 999
|  7> end
|  8> 
|  9> * xyz 0 1
| 10> C         -4.107736857704    2.350370917601    0.043863916718
| 11> O         -2.476520222420    2.223443966493   -0.104750984144
| 12> H         -4.352118840120    3.381996795497   -0.165047887286
| 13> H         -4.345516168568    2.042037930767    1.051837337331
| 14> H         -4.472703528453    1.667344758275   -0.706262046599
| 15> H         -2.132514382734    2.826435631368    0.557359663981
| 16> **                         ****END OF INPUT****
================================================================================

                       ****************************
                       * Single Point Calculation *
                       ****************************

---------------------------------
CARTESIAN COORDINATES (ANGSTROEM)
---------------------------------
  C     -4.107737    2.350371    0.043864
  O     -2.476520    2.223444   -0.104751
  H     -4.352119    3.381997   -0.165048
  H     -4.345516    2.042038    1.051837
  H     -4.472704    1.667345   -0.706262
  H     -2.132514    2.826436    0.557360

----------------------------
CARTESIAN COORDINATES (A.U.)
----------------------------
  NO LB      ZA    FRAG     MASS         X           Y           Z
   0 C     6.0000    0    12.011   -7.762498    4.441557    0.082891
   1 O     8.0000    0    15.999   -4.679945    4.201700   -0.197951
   2 H     1.0000    0     1.008   -8.224313    6.391048   -0.311895
   3 H     1.0000    0     1.008   -8.211835    3.858892    1.987685
   4 H     1.0000    0     1.008   -8.452185    3.150825   -1.334642
   5 H     1.0000    0     1.008   -4.029868    5.341189    1.053257

--------------------------------
INTERNAL COORDINATES (ANGSTROEM)
--------------------------------
 C      0   0   0     0.000000000000     0.00000000     0.00000000
 O      1   0   0     1.642882999761     0.00000000     0.00000000
 H      1   2   0     1.080564041196   106.30951065     0.00000000
 H      1   2   3     1.080564041650   106.30951051   238.45820389
 H      1   2   3     1.078153220059   102.95731666   119.22910200
 H      2   1   3     0.959338040530   104.18457125    60.77089787

---------------------------
INTERNAL COORDINATES (A.U.)
---------------------------
 C      0   0   0     0.000000000000     0.00000000     0.00000000
 O      1   0   0     3.104598939623     0.00000000     0.00000000
 H      1   2   0     2.041970108024   106.30951065     0.00000000
 H      1   2   3     2.041970108882   106.30951051   238.45820389
 H      1   2   3     2.037414316317   102.95731666   119.22910200
 H      2   1   3     1.812886166454   104.18457125    60.77089787

---------------------
BASIS SET INFORMATION
---------------------
There are 3 groups of distinct atoms

 Group   1 Type C   : 10s4p1d contracted to 3s2p1d pattern {631/31/1}
 Group   2 Type O   : 10s4p1d contracted to 3s2p1d pattern {631/31/1}
 Group   3 Type H   : 4s contracted to 2s pattern {31}

Atom   0C    basis set group =>   1
Atom   1O    basis set group =>   2
Atom   2H    basis set group =>   3
Atom   3H    basis set group =>   3
Atom   4H    basis set group =>   3
Atom   5H    basis set group =>   3
------------------------------------------------------------------------------
                           ORCA GTO INTEGRAL CALCULATION
------------------------------------------------------------------------------

                         BASIS SET STATISTICS AND STARTUP INFO

 # of primitive gaussian shells          ...   46
 # of primitive gaussian functions       ...   70
 # of contracted shells                  ...   20
 # of contracted basis functions         ...   36
 Highest angular momentum                ...    2
 Maximum contraction depth               ...    6
 Integral package used                   ... LIBINT
 Integral threshhold            Thresh   ...  1.000e-10
 Primitive cut-off              TCut     ...  1.000e-11


------------------------------ INTEGRAL EVALUATION ----------------------------


 * One electron integrals 
 Pre-screening matrix                    ... done
 Shell pair data                         ... done (   0.000 sec)

-------------------------------------------------------------------------------
                                 ORCA SCF
-------------------------------------------------------------------------------

------------
SCF SETTINGS
------------
Hamiltonian:
 Density Functional     Method          .... DFT(GTOs)
 Exchange Functional    Exchange        .... WB97X-D3
 Correlation Functional Correlation     .... WB97X-D3
 Gradients option       PostSCFGGA      .... off
 Hybrid DFT is turned on
   Fraction HF Exchange ScalHFX         ....  0.195728
   Scaling of DF-GGA-X  ScalDFX         ....  0.000000
   Scaling of DF-GGA-C  ScalDFC         ....  1.000000
   Scaling of DF-LDA-C  ScalLDAC        ....  1.000000
   Perturbative correction              ....  0.000000
 Long-range corrected/Screened/Range-Separated Hybrid DFT is turned on
   Amount of maximum screened exact exchange              ....  0.804272
   Range separation parameter mu (erf(mu*r12)/r12)        ....  0.250000


General Settings:
 Integral files         IntName         .... Scan_13
 Hartree-Fock type      HFTyp           .... RHF
 Total Charge           Charge          ....    0
 Multiplicity           Mult            ....    1
 Number of Electrons    NEL             ....   18
 Basis Dimension        Dim             ....   36
 Nuclear Repulsion      ENuc            ....     37.5147041450 Eh

Convergence Acceleration:
 DIIS                   CNVDIIS         .... on
   Start iteration      DIISMaxIt       ....     0
   Startup error        DIISStart       ....  0.200000
   # of expansion vecs  DIISMaxEq       ....     5
   Bias factor          DIISBfac        ....   1.050
   Max. coefficient     DIISMaxC        ....  10.000
 Newton-Raphson         CNVNR           .... off
 SOSCF                  CNVSOSCF        .... off
 Level Shifting         CNVShift        .... off
 Zerner damping         CNVZerner       .... off
 Static damping         CNVDamp         .... off
 Fernandez-Rico         CNVRico         .... off

SCF Procedure:
 Maximum # iterations   MaxIter         ....   999
 SCF integral mode      SCFMode         .... Direct
   Integral package                     .... LIBINT
 Reset frequeny         DirectResetFreq ....    20
 Integral Threshold     Thresh          ....  1.000e-10 Eh
 Primitive CutOff       TCut            ....  1.000e-11 Eh

Convergence Tolerance:
 Convergence Check Mode ConvCheckMode   .... All-Criteria
 Convergence forced     ConvForced      .... 0
 Energy Change          TolE            ....  1.000e-06 Eh
 Max Density Change     TolMaxP         ....  1.000e-05
 RMS Density Change     TolRMSP         ....  1.000e-06
 DIIS Error             TolErr          ....  1.000e-06


Diagonalization of the overlap matrix:
Smallest eigenvalue                        ... 1.755e-02
Time for diagonalization                   ...    0.001 sec
Threshold for overlap eigenvalues          ... 1.000e-08
Number of eigenvalues below threshold      ... 0
Time for construction of square roots      ...    0.004 sec
Total time needed                          ...    0.005 sec

-------------------
DFT GRID GENERATION
-------------------

General Integration Accuracy     IntAcc      ...  4.340
Radial Grid Type                 RadialGrid  ... Gauss-Chebyshev
Angular Grid (max. acc.)         AngularGrid ... Lebedev-110
Angular grid pruning method      GridPruning ... 3 (G Style)
Weight generation scheme         WeightScheme... Becke
Basis function cutoff            BFCut       ...    1.0000e-10
Integration weight cutoff        WCut        ...    1.0000e-14
Grids for H and He will be reduced by one unit

# of grid points (after initial pruning)     ...   6548 (   0.0 sec)
# of grid points (after weights+screening)   ...   6373 (   0.0 sec)
nearest neighbour list constructed           ...    0.0 sec
Grid point re-assignment to atoms done       ...    0.0 sec
Grid point division into batches done        ...    0.0 sec
Reduced shell lists constructed in    0.0 sec

Total number of grid points                  ...     6373
Total number of batches                      ...      103
Average number of points per batch           ...       61
Average number of grid points per atom       ...     1062
Average number of shells per batch           ...    17.60 (87.98%)
Average number of basis functions per batch  ...    32.13 (89.26%)
Average number of large shells per batch     ...    15.87 (90.16%)
Average number of large basis fcns per batch ...    29.33 (91.26%)
Maximum spatial batch extension              ...  19.49, 25.60, 21.59 au
Average spatial batch extension              ...   4.73,  4.59,  4.47 au

Time for grid setup =    0.048 sec

------------------------------
INITIAL GUESS: MODEL POTENTIAL
------------------------------
Loading Hartree-Fock densities                     ... done
Calculating cut-offs                               ... done
Setting up the integral package                    ... done
Initializing the effective Hamiltonian             ... done
Starting the Coulomb interaction                   ... done (   0.0 sec)
Reading the grid                                   ... done
Mapping shells                                     ... done
Starting the XC term evaluation                    ... done (   0.0 sec)
  promolecular density results
     # of electrons  =     17.993247360
     EX              =    -14.377821022
     EC              =     -0.565736315
     EX+EC           =    -14.943557336
Transforming the Hamiltonian                       ... done (   0.0 sec)
Diagonalizing the Hamiltonian                      ... done (   0.0 sec)
Back transforming the eigenvectors                 ... done (   0.0 sec)
Now organizing SCF variables                       ... done
                      ------------------
                      INITIAL GUESS DONE (   0.2 sec)
                      ------------------
--------------
SCF ITERATIONS
--------------
ITER       Energy         Delta-E        Max-DP      RMS-DP      [F,P]   Gradient Norm
               ***  Starting incremental Fock matrix formation  ***
                             ****Resetting KDIIS****
                             ****Turning on KDIIS(Cayley)****
  0   -115.5786976651   0.000000000000 0.02900905  0.00204536  0.1073265   0.101028031
  1   -115.6061374755  -0.027439810378 0.01809516  0.00161829  0.0839767   0.080054242
  2   -115.6228126849  -0.016675209404 0.03060419  0.00254151  0.0693829   0.065268443
  3   -115.6424054236  -0.019592738646 0.04694099  0.00413840  0.0428916   0.040675459
  4   -115.6551154999  -0.012710076394 0.00318165  0.00036738  0.0027460   0.002639995
  5   -115.6551897840  -0.000074284105 0.00401766  0.00047034  0.0013554   0.001249672
  6   -115.6552110071  -0.000021223037 0.00052747  0.00006882  0.0003893   0.000382863
  7   -115.6552126398  -0.000001632729 0.00007467  0.00000807  0.0000481   0.000041353
                          ***Energy convergence achieved***
  8   -115.6552126614  -0.000000021622 0.00002216  0.00000256  0.0000095   0.000009739
                           ***RMSP convergence achieved***
                           ***MAXP convergence achieved***
                    *** KDIIS BlockDiag ( 0.000 sec) ***

               *****************************************************
               *                     SUCCESS                       *
               *           SCF CONVERGED AFTER   9 CYCLES          *
               *****************************************************

Setting up the final grid:

General Integration Accuracy     IntAcc      ...  4.670
Radial Grid Type                 RadialGrid  ... Gauss-Chebyshev
Angular Grid (max. acc.)         AngularGrid ... Lebedev-302
Angular grid pruning method      GridPruning ... 3 (G Style)
Weight generation scheme         WeightScheme... Becke
Basis function cutoff            BFCut       ...    1.0000e-10
Integration weight cutoff        WCut        ...    1.0000e-14
Grids for H and He will be reduced by one unit

# of grid points (after initial pruning)     ...  26000 (   0.0 sec)
# of grid points (after weights+screening)   ...  25167 (   0.0 sec)
nearest neighbour list constructed           ...    0.0 sec
Grid point re-assignment to atoms done       ...    0.0 sec
Grid point division into batches done        ...    0.1 sec
Reduced shell lists constructed in    0.2 sec

Total number of grid points                  ...    25167
Total number of batches                      ...      395
Average number of points per batch           ...       63
Average number of grid points per atom       ...     4194
Average number of shells per batch           ...    16.14 (80.72%)
Average number of basis functions per batch  ...    29.61 (82.26%)
Average number of large shells per batch     ...    14.35 (88.89%)
Average number of large basis fcns per batch ...    26.55 (89.66%)
Maximum spatial batch extension              ...  18.59, 18.47, 16.88 au
Average spatial batch extension              ...   3.07,  3.01,  3.03 au

Final grid set up in    0.2 sec
Final integration                            ... done (   0.2 sec)
Change in XC energy                          ...    -0.000077497
Integrated number of electrons               ...    18.000024978
Previous integrated no of electrons          ...    17.996759766

----------------
TOTAL SCF ENERGY
----------------

Total Energy       :         -115.65529016 Eh           -3147.14044 eV

Components:
Nuclear Repulsion  :           37.51470415 Eh            1020.82700 eV
Electronic Energy  :         -153.16999430 Eh           -4167.96744 eV
One Electron Energy:         -231.62029404 Eh           -6302.70862 eV
Two Electron Energy:           78.45029974 Eh            2134.74118 eV

Virial components:
Potential Energy   :         -230.44787352 Eh           -6270.80544 eV
Kinetic Energy     :          114.79258336 Eh            3123.66500 eV
Virial Ratio       :            2.00751535


DFT components:
N(Alpha)           :        9.000012488881 electrons
N(Beta)            :        9.000012488881 electrons
N(Total)           :       18.000024977762 electrons
E(XC)              :      -10.600178428156 Eh       

---------------
SCF CONVERGENCE
---------------

  Last Energy change         ...   -1.0567e-09  Tolerance :   1.0000e-06
  Last MAX-Density change    ...    4.7111e-06  Tolerance :   1.0000e-05
  Last RMS-Density change    ...    5.6065e-07  Tolerance :   1.0000e-06
  Last DIIS Error            ...    2.1056e-06  Tolerance :   1.0000e-06

             **** THE GBW FILE WAS UPDATED (Scan_13.gbw) ****
             **** DENSITY FILE WAS UPDATED (Scan_13.scfp.tmp) ****
             **** ENERGY FILE WAS UPDATED (Scan_13.en.tmp) ****
----------------
ORBITAL ENERGIES
----------------

  NO   OCC          E(Eh)            E(eV) 
   0   2.0000     -19.230512      -523.2888 
   1   2.0000     -10.328844      -281.0621 
   2   2.0000      -1.069936       -29.1144 
   3   2.0000      -0.801749       -21.8167 
   4   2.0000      -0.564495       -15.3607 
   5   2.0000      -0.534930       -14.5562 
   6   2.0000      -0.500946       -13.6314 
   7   2.0000      -0.424107       -11.5405 
   8   2.0000      -0.356173        -9.6920 
   9   0.0000       0.147094         4.0026 
  10   0.0000       0.203373         5.5341 
  11   0.0000       0.254691         6.9305 
  12   0.0000       0.264196         7.1891 
  13   0.0000       0.264454         7.1962 
  14   0.0000       0.617030        16.7903 
  15   0.0000       0.651936        17.7401 
  16   0.0000       0.659647        17.9499 
  17   0.0000       0.928818        25.2744 
  18   0.0000       0.978868        26.6363 
  19   0.0000       0.980698        26.6862 
  20   0.0000       1.008940        27.4547 
  21   0.0000       1.081710        29.4348 
  22   0.0000       1.102198        29.9923 
  23   0.0000       1.160636        31.5825 
  24   0.0000       1.241391        33.7800 
  25   0.0000       1.612827        43.8872 
  26   0.0000       1.615766        43.9672 
  27   0.0000       1.724848        46.9355 
  28   0.0000       1.887103        51.3507 
  29   0.0000       1.908304        51.9276 
  30   0.0000       2.175293        59.1927 
  31   0.0000       2.212770        60.2125 
  32   0.0000       2.331704        63.4489 
  33   0.0000       2.339083        63.6497 
  34   0.0000       2.576020        70.0971 
  35   0.0000       2.819772        76.7299 

                    ********************************
                    * MULLIKEN POPULATION ANALYSIS *
                    ********************************

-----------------------
MULLIKEN ATOMIC CHARGES
-----------------------
   0 C :   -0.283588
   1 O :   -0.681160
   2 H :    0.179784
   3 H :    0.179843
   4 H :    0.200475
   5 H :    0.404646
Sum of atomic charges:   -0.0000000

--------------------------------
MULLIKEN REDUCED ORBITAL CHARGES
--------------------------------
  0 C s       :     3.314765  s :     3.314765
      pz      :     1.110937  p :     2.928163
      px      :     0.708782
      py      :     1.108444
      dz2     :     0.009361  d :     0.040660
      dxz     :     0.007083
      dyz     :     0.006327
      dx2y2   :     0.010745
      dxy     :     0.007144
  1 O s       :     3.909252  s :     3.909252
      pz      :     1.707654  p :     4.748924
      px      :     1.287865
      py      :     1.753405
      dz2     :     0.003128  d :     0.022984
      dxz     :     0.003640
      dyz     :     0.008382
      dx2y2   :     0.004698
      dxy     :     0.003137
  2 H s       :     0.820216  s :     0.820216
  3 H s       :     0.820157  s :     0.820157
  4 H s       :     0.799525  s :     0.799525
  5 H s       :     0.595354  s :     0.595354


                     *******************************
                     * LOEWDIN POPULATION ANALYSIS *
                     *******************************

----------------------
LOEWDIN ATOMIC CHARGES
----------------------
   0 C :   -0.213941
   1 O :   -0.503805
   2 H :    0.133830
   3 H :    0.133569
   4 H :    0.148054
   5 H :    0.302293

-------------------------------
LOEWDIN REDUCED ORBITAL CHARGES
-------------------------------
  0 C s       :     3.026670  s :     3.026670
      pz      :     1.159712  p :     3.112869
      px      :     0.794243
      py      :     1.158914
      dz2     :     0.017269  d :     0.074402
      dxz     :     0.012447
      dyz     :     0.011247
      dx2y2   :     0.020867
      dxy     :     0.012572
  1 O s       :     3.662738  s :     3.662738
      pz      :     1.721146  p :     4.806155
      px      :     1.321132
      py      :     1.763876
      dz2     :     0.004425  d :     0.034912
      dxz     :     0.006180
      dyz     :     0.010863
      dx2y2   :     0.008014
      dxy     :     0.005430
  2 H s       :     0.866170  s :     0.866170
  3 H s       :     0.866431  s :     0.866431
  4 H s       :     0.851946  s :     0.851946
  5 H s       :     0.697707  s :     0.697707


                      *****************************
                      * MAYER POPULATION ANALYSIS *
                      *****************************

  NA   - Mulliken gross atomic population
  ZA   - Total nuclear charge
  QA   - Mulliken gross atomic charge
  VA   - Mayer's total valence
  BVA  - Mayer's bonded valence
  FA   - Mayer's free valence

  ATOM       NA         ZA         QA         VA         BVA        FA
  0 C      6.2836     6.0000    -0.2836     3.7642     3.7642     0.0000
  1 O      8.6812     8.0000    -0.6812     1.7204     1.7204    -0.0000
  2 H      0.8202     1.0000     0.1798     0.9234     0.9234    -0.0000
  3 H      0.8202     1.0000     0.1798     0.9232     0.9232     0.0000
  4 H      0.7995     1.0000     0.2005     0.9270     0.9270    -0.0000
  5 H      0.5954     1.0000     0.4046     0.7943     0.7943    -0.0000

  Mayer bond orders larger than 0.1
B(  0-C ,  1-O ) :   0.9337 B(  0-C ,  2-H ) :   0.9409 B(  0-C ,  3-H ) :   0.9407 
B(  0-C ,  4-H ) :   0.9471 B(  1-O ,  5-H ) :   0.7913 

-------
TIMINGS
-------

Total SCF time: 0 days 0 hours 0 min 3 sec 

Total time                  ....       3.932 sec
Sum of individual times     ....       3.570 sec  ( 90.8%)

Fock matrix formation       ....       3.136 sec  ( 79.8%)
  XC integration            ....       0.984 sec  ( 31.4% of F)
    Basis function eval.    ....       0.384 sec  ( 39.1% of XC)
    Density eval.           ....       0.047 sec  (  4.8% of XC)
    XC-Functional eval.     ....       0.257 sec  ( 26.2% of XC)
    XC-Potential eval.      ....       0.052 sec  (  5.3% of XC)
Diagonalization             ....       0.005 sec  (  0.1%)
Density matrix formation    ....       0.000 sec  (  0.0%)
Population analysis         ....       0.015 sec  (  0.4%)
Initial guess               ....       0.143 sec  (  3.6%)
Orbital Transformation      ....       0.000 sec  (  0.0%)
Orbital Orthonormalization  ....       0.000 sec  (  0.0%)
DIIS solution               ....       0.000 sec  (  0.0%)
Grid generation             ....       0.270 sec  (  6.9%)


-------------------------------------------------------------------------------
                          DFT DISPERSION CORRECTION                            
                                                                               
                              DFTD3 V3.1  Rev 1                                
                              USING zero damping                               
-------------------------------------------------------------------------------
The omegaB97X-D3 functional is recognized. Fit by Chai et al.
Active option DFTDOPT                   ...         3   

molecular C6(AA) [au] = 209.773540 


            DFT-D V3
 parameters
 s6 scaling factor         :     1.0000 
 rs6 scaling factor        :     1.2810 
 s8 scaling factor         :     1.0000 
 rs8 scaling factor        :     1.0940 
 Damping factor alpha6     :    14.0000 
 Damping factor alpha8     :    16.0000 
 ad hoc parameters k1-k3   :    16.0000     1.3333    -4.0000 

 Edisp/kcal,au: -0.191574237299  -0.000305292947 
 E6   /kcal   :  -0.037921830 
 E8   /kcal   :  -0.153652408 
 % E8         :  80.205151765 

-------------------------   ----------------
Dispersion correction           -0.000305293
-------------------------   ----------------


-------------------------   --------------------
FINAL SINGLE POINT ENERGY      -115.655595452852
-------------------------   --------------------


                            ***************************************
                            *     ORCA property calculations      *
                            ***************************************

                                    ---------------------
                                    Active property flags
                                    ---------------------
   (+) Dipole Moment


------------------------------------------------------------------------------
                       ORCA ELECTRIC PROPERTIES CALCULATION
------------------------------------------------------------------------------

Dipole Moment Calculation                       ... on
Quadrupole Moment Calculation                   ... off
Polarizability Calculation                      ... off
GBWName                                         ... Scan_13.gbw
Electron density file                           ... Scan_13.scfp.tmp

-------------
DIPOLE MOMENT
-------------
                                X             Y             Z
Electronic contribution:      1.52546      -0.22097      -0.25291
Nuclear contribution   :     -2.11981       0.66011       0.73837
                        -----------------------------------------
Total Dipole Moment    :     -0.59435       0.43913       0.48546
                        -----------------------------------------
Magnitude (a.u.)       :      0.88417
Magnitude (Debye)      :      2.24739


Timings for individual modules:

Sum of individual times         ...        4.328 sec (=   0.072 min)
GTO integral calculation        ...        0.357 sec (=   0.006 min)   8.3 %
SCF iterations                  ...        3.971 sec (=   0.066 min)  91.7 %
                             ****ORCA TERMINATED NORMALLY****
TOTAL RUN TIME: 0 days 0 hours 0 minutes 4 seconds 662 msec
