
                                 *****************
                                 * O   R   C   A *
                                 *****************

           --- An Ab Initio, DFT and Semiempirical electronic structure package ---

                  #######################################################
                  #                        -***-                        #
                  #  Department of molecular theory and spectroscopy    #
                  #              Directorship: Frank Neese              #
                  # Max Planck Institute for Chemical Energy Conversion #
                  #                  D-45470 Muelheim/Ruhr              #
                  #                       Germany                       #
                  #                                                     #
                  #                  All rights reserved                #
                  #                        -***-                        #
                  #######################################################


                         Program Version 4.0.0.2 - RELEASE -


 With contributions from (in alphabetic order):
   Daniel Aravena         : Magnetic Properties
   Michael Atanasov       : Ab Initio Ligand Field Theory
   Ute Becker             : Parallelization
   Martin Brehm           : Molecular dynamics
   Dmytro Bykov           : SCF Hessian
   Vijay G. Chilkuri      : MRCI spin determinant printing
   Dipayan Datta          : RHF DLPNO-CCSD density
   Achintya Kumar Dutta   : EOM-CC, STEOM-CC
   Dmitry Ganyushin       : Spin-Orbit,Spin-Spin,Magnetic field MRCI
   Yang Guo               : DLPNO-NEVPT2, CIM, IAO-localization
   Andreas Hansen         : Spin unrestricted coupled pair/coupled cluster methods
   Lee Huntington         : MR-EOM, pCC
   Robert Izsak           : Overlap fitted RIJCOSX, COSX-SCS-MP3, EOM
   Christian Kollmar      : KDIIS, OOCD, Brueckner-CCSD(T), CCSD density
   Simone Kossmann        : Meta GGA functionals, TD-DFT gradient, OOMP2, MP2 Hessian
   Martin Krupicka        : AUTO-CI
   Dagmar Lenk            : GEPOL surface
   Dimitrios Liakos       : Extrapolation schemes; parallel MDCI
   Dimitrios Manganas     : ROCIS; embedding schemes
   Dimitrios Pantazis     : SARC Basis sets
   Taras Petrenko         : DFT Hessian,TD-DFT gradient, ASA, ECA, R-Raman, ABS, FL, XAS/XES, NRVS
   Peter Pinski           : DLPNO-MP2
   Christoph Reimann      : Effective Core Potentials
   Marius Retegan         : Local ZFS, SOC
   Christoph Riplinger    : Optimizer, TS searches, QM/MM, DLPNO-CCSD(T), (RO)-DLPNO pert. Triples
   Tobias Risthaus        : Range-separated hybrids, TD-DFT gradient, RPA, STAB
   Michael Roemelt        : Restricted open shell CIS
   Masaaki Saitow         : Open-shell DLPNO
   Barbara Sandhoefer     : DKH picture change effects
   Kantharuban Sivalingam : CASSCF convergence, NEVPT2, FIC-MRCI
   Georgi Stoychev        : AutoAux
   Boris Wezisla          : Elementary symmetry handling
   Frank Wennmohs         : Technical directorship


 We gratefully acknowledge several colleagues who have allowed us to
 interface, adapt or use parts of their codes:
   Stefan Grimme, W. Hujo, H. Kruse,             : VdW corrections, initial TS optimization,
                  C. Bannwarth                     DFT functionals, gCP, sTDA/sTD-DF
   Ed Valeev                                     : LibInt (2-el integral package), F12 methods
   Garnet Chan, S. Sharma, J. Yang, R. Olivares  : DMRG
   Ulf Ekstrom                                   : XCFun DFT Library
   Mihaly Kallay                                 : mrcc  (arbitrary order and MRCC methods)
   Jiri Pittner, Ondrej Demel                    : Mk-CCSD
   Frank Weinhold                                : gennbo (NPA and NBO analysis)
   Christopher J. Cramer and Donald G. Truhlar   : smd solvation model


 Your calculation uses the libint2 library for the computation of 2-el integrals
 For citations please refer to: http://libint.valeyev.net

 This ORCA versions uses:
   CBLAS   interface :  Fast vector & matrix operations
   LAPACKE interface :  Fast linear algebra routines
   SCALAPACK package :  Parallel linear algebra routines


Your calculation utilizes the atom-pairwise dispersion correction
with the zero-damping scheme (D30)
Cite in your paper:
S.Grimme, J.Antony, S.Ehrlich and H.Krieg, J.Chem.Phys., 132, (2010), 154104 
   

XCFun DFT library Copyright 2009-2010 Ulf Ekstrom and contributors.
See http://admol.org/xcfun for more information. This is free soft-
ware; see the source code for copying conditions. There is ABSOLUTELY
NO WARRANTY; not even for MERCHANTABILITY or FITNESS FOR A PARTICULAR
PURPOSE. For details see the documentation. Scientific users of this 
library should cite U. Ekstrom, L. Visscher, R. Bast, A. J. Thorvald-
sen and K. Ruud; J.Chem.Theor.Comp. 2010, DOI: 10.1021/ct100117s
XCFun Version 0.99 
Your calculation utilizes the basis: 6-31G(d)
   H-He, Li-Ne : W. J. Hehre, R. Ditchfield and J.A. Pople, J. Chem. Phys. 56, 2257 (1972).
                 Note: He and Ne are unpublished basis sets taken from the Gaussian program.
                 Note: Li and B from J. D. Dill and J. A. Pople, J. Chem. Phys. 62, 2921 (1975).
   Na - Ar     : M. M. Francl, W. J. Pietro, W. J. Hehre, J. S. Binkley, M. S. Gordon, 
                 D. J. DeFrees and J. A. Pople, J. Chem. Phys. 77, 3654 (1982).
   K - Zn      : V. A. Rassolov, J. A. Pople, M. A. Ratner, and T. L. Windus, J. Chem. Phys. 109, 1223 (1998).

================================================================================
                                        WARNINGS
                       Please study these warnings very carefully!
================================================================================

Warning: TCutStore was < 0. Adjusted to Thresh (uncritical)

INFO   : the flag for use of LIBINT has been found!

================================================================================
                                       INPUT FILE
================================================================================
NAME = initial14.inp
|  1> ! WB97X-D3 6-31G(d) VerySlowConv
|  2> ! KDIIS NOSOSCF
|  3> %base "Scan_14"
|  4> 
|  5> %scf
|  6> maxiter 999
|  7> end
|  8> 
|  9> * xyz 0 1
| 10> C         -4.149280373638    2.351277145039    0.045087188019
| 11> O         -2.427080295014    2.221241832009   -0.107444026787
| 12> H         -4.361328327406    3.386036759439   -0.167265220637
| 13> H         -4.354692676761    2.039393160415    1.055690726329
| 14> H         -4.484415402104    1.663170328036   -0.710795134564
| 15> H         -2.110312925076    2.830510775060    0.561726467640
| 16> **                         ****END OF INPUT****
================================================================================

                       ****************************
                       * Single Point Calculation *
                       ****************************

---------------------------------
CARTESIAN COORDINATES (ANGSTROEM)
---------------------------------
  C     -4.149280    2.351277    0.045087
  O     -2.427080    2.221242   -0.107444
  H     -4.361328    3.386037   -0.167265
  H     -4.354693    2.039393    1.055691
  H     -4.484415    1.663170   -0.710795
  H     -2.110313    2.830511    0.561726

----------------------------
CARTESIAN COORDINATES (A.U.)
----------------------------
  NO LB      ZA    FRAG     MASS         X           Y           Z
   0 C     6.0000    0    12.011   -7.841004    4.443270    0.085202
   1 O     8.0000    0    15.999   -4.586517    4.197539   -0.203040
   2 H     1.0000    0     1.008   -8.241716    6.398682   -0.316085
   3 H     1.0000    0     1.008   -8.229177    3.853895    1.994966
   4 H     1.0000    0     1.008   -8.474317    3.142936   -1.343208
   5 H     1.0000    0     1.008   -3.987913    5.348890    1.061509

--------------------------------
INTERNAL COORDINATES (ANGSTROEM)
--------------------------------
 C      0   0   0     0.000000000000     0.00000000     0.00000000
 O      1   0   0     1.733824692677     0.00000000     0.00000000
 H      1   2   0     1.077397484568   104.48857854     0.00000000
 H      1   2   3     1.077397487367   104.48857268   238.63056824
 H      1   2   3     1.075715838177   101.51737018   119.31528586
 H      2   1   3     0.958821861576   102.65627343    60.68471032

---------------------------
INTERNAL COORDINATES (A.U.)
---------------------------
 C      0   0   0     0.000000000000     0.00000000     0.00000000
 O      1   0   0     3.276453833390     0.00000000     0.00000000
 H      1   2   0     2.035986183208   104.48857854     0.00000000
 H      1   2   3     2.035986188498   104.48857268   238.63056824
 H      1   2   3     2.032808332076   101.51737018   119.31528586
 H      2   1   3     1.811910729595   102.65627343    60.68471032

---------------------
BASIS SET INFORMATION
---------------------
There are 3 groups of distinct atoms

 Group   1 Type C   : 10s4p1d contracted to 3s2p1d pattern {631/31/1}
 Group   2 Type O   : 10s4p1d contracted to 3s2p1d pattern {631/31/1}
 Group   3 Type H   : 4s contracted to 2s pattern {31}

Atom   0C    basis set group =>   1
Atom   1O    basis set group =>   2
Atom   2H    basis set group =>   3
Atom   3H    basis set group =>   3
Atom   4H    basis set group =>   3
Atom   5H    basis set group =>   3
------------------------------------------------------------------------------
                           ORCA GTO INTEGRAL CALCULATION
------------------------------------------------------------------------------

                         BASIS SET STATISTICS AND STARTUP INFO

 # of primitive gaussian shells          ...   46
 # of primitive gaussian functions       ...   70
 # of contracted shells                  ...   20
 # of contracted basis functions         ...   36
 Highest angular momentum                ...    2
 Maximum contraction depth               ...    6
 Integral package used                   ... LIBINT
 Integral threshhold            Thresh   ...  1.000e-10
 Primitive cut-off              TCut     ...  1.000e-11


------------------------------ INTEGRAL EVALUATION ----------------------------


 * One electron integrals 
 Pre-screening matrix                    ... done
 Shell pair data                         ... done (   0.000 sec)

-------------------------------------------------------------------------------
                                 ORCA SCF
-------------------------------------------------------------------------------

------------
SCF SETTINGS
------------
Hamiltonian:
 Density Functional     Method          .... DFT(GTOs)
 Exchange Functional    Exchange        .... WB97X-D3
 Correlation Functional Correlation     .... WB97X-D3
 Gradients option       PostSCFGGA      .... off
 Hybrid DFT is turned on
   Fraction HF Exchange ScalHFX         ....  0.195728
   Scaling of DF-GGA-X  ScalDFX         ....  0.000000
   Scaling of DF-GGA-C  ScalDFC         ....  1.000000
   Scaling of DF-LDA-C  ScalLDAC        ....  1.000000
   Perturbative correction              ....  0.000000
 Long-range corrected/Screened/Range-Separated Hybrid DFT is turned on
   Amount of maximum screened exact exchange              ....  0.804272
   Range separation parameter mu (erf(mu*r12)/r12)        ....  0.250000


General Settings:
 Integral files         IntName         .... Scan_14
 Hartree-Fock type      HFTyp           .... RHF
 Total Charge           Charge          ....    0
 Multiplicity           Mult            ....    1
 Number of Electrons    NEL             ....   18
 Basis Dimension        Dim             ....   36
 Nuclear Repulsion      ENuc            ....     36.5330691722 Eh

Convergence Acceleration:
 DIIS                   CNVDIIS         .... on
   Start iteration      DIISMaxIt       ....     0
   Startup error        DIISStart       ....  0.200000
   # of expansion vecs  DIISMaxEq       ....     5
   Bias factor          DIISBfac        ....   1.050
   Max. coefficient     DIISMaxC        ....  10.000
 Newton-Raphson         CNVNR           .... off
 SOSCF                  CNVSOSCF        .... off
 Level Shifting         CNVShift        .... off
 Zerner damping         CNVZerner       .... off
 Static damping         CNVDamp         .... off
 Fernandez-Rico         CNVRico         .... off

SCF Procedure:
 Maximum # iterations   MaxIter         ....   999
 SCF integral mode      SCFMode         .... Direct
   Integral package                     .... LIBINT
 Reset frequeny         DirectResetFreq ....    20
 Integral Threshold     Thresh          ....  1.000e-10 Eh
 Primitive CutOff       TCut            ....  1.000e-11 Eh

Convergence Tolerance:
 Convergence Check Mode ConvCheckMode   .... All-Criteria
 Convergence forced     ConvForced      .... 0
 Energy Change          TolE            ....  1.000e-06 Eh
 Max Density Change     TolMaxP         ....  1.000e-05
 RMS Density Change     TolRMSP         ....  1.000e-06
 DIIS Error             TolErr          ....  1.000e-06


Diagonalization of the overlap matrix:
Smallest eigenvalue                        ... 1.873e-02
Time for diagonalization                   ...    0.001 sec
Threshold for overlap eigenvalues          ... 1.000e-08
Number of eigenvalues below threshold      ... 0
Time for construction of square roots      ...    0.006 sec
Total time needed                          ...    0.006 sec

-------------------
DFT GRID GENERATION
-------------------

General Integration Accuracy     IntAcc      ...  4.340
Radial Grid Type                 RadialGrid  ... Gauss-Chebyshev
Angular Grid (max. acc.)         AngularGrid ... Lebedev-110
Angular grid pruning method      GridPruning ... 3 (G Style)
Weight generation scheme         WeightScheme... Becke
Basis function cutoff            BFCut       ...    1.0000e-10
Integration weight cutoff        WCut        ...    1.0000e-14
Grids for H and He will be reduced by one unit

# of grid points (after initial pruning)     ...   6548 (   0.0 sec)
# of grid points (after weights+screening)   ...   6378 (   0.0 sec)
nearest neighbour list constructed           ...    0.0 sec
Grid point re-assignment to atoms done       ...    0.0 sec
Grid point division into batches done        ...    0.0 sec
Reduced shell lists constructed in    0.0 sec

Total number of grid points                  ...     6378
Total number of batches                      ...      104
Average number of points per batch           ...       61
Average number of grid points per atom       ...     1063
Average number of shells per batch           ...    17.49 (87.43%)
Average number of basis functions per batch  ...    31.96 (88.78%)
Average number of large shells per batch     ...    15.68 (89.65%)
Average number of large basis fcns per batch ...    29.01 (90.76%)
Maximum spatial batch extension              ...  19.49, 23.03, 25.60 au
Average spatial batch extension              ...   4.72,  4.61,  4.56 au

Time for grid setup =    0.048 sec

------------------------------
INITIAL GUESS: MODEL POTENTIAL
------------------------------
Loading Hartree-Fock densities                     ... done
Calculating cut-offs                               ... done
Setting up the integral package                    ... done
Initializing the effective Hamiltonian             ... done
Starting the Coulomb interaction                   ... done (   0.0 sec)
Reading the grid                                   ... done
Mapping shells                                     ... done
Starting the XC term evaluation                    ... done (   0.0 sec)
  promolecular density results
     # of electrons  =     17.993984304
     EX              =    -14.363729427
     EC              =     -0.562441603
     EX+EC           =    -14.926171030
Transforming the Hamiltonian                       ... done (   0.0 sec)
Diagonalizing the Hamiltonian                      ... done (   0.0 sec)
Back transforming the eigenvectors                 ... done (   0.0 sec)
Now organizing SCF variables                       ... done
                      ------------------
                      INITIAL GUESS DONE (   0.2 sec)
                      ------------------
--------------
SCF ITERATIONS
--------------
ITER       Energy         Delta-E        Max-DP      RMS-DP      [F,P]   Gradient Norm
               ***  Starting incremental Fock matrix formation  ***
                             ****Resetting KDIIS****
                             ****Turning on KDIIS(Cayley)****
  0   -115.5615407163   0.000000000000 0.03073923  0.00212798  0.1090668   0.103001238
  1   -115.5908044644  -0.029263748111 0.01862458  0.00166048  0.0842008   0.080738908
  2   -115.6079427075  -0.017138243056 0.03097998  0.00249601  0.0692943   0.065565902
  3   -115.6274662321  -0.019523524682 0.04846796  0.00412067  0.0433610   0.041231910
  4   -115.6404630189  -0.012996786751 0.00349621  0.00041680  0.0030778   0.002980672
  5   -115.6405555087  -0.000092489857 0.00353083  0.00042874  0.0012968   0.001236593
  6   -115.6405747080  -0.000019199280 0.00063523  0.00008118  0.0004240   0.000409203
  7   -115.6405765129  -0.000001804923 0.00013768  0.00001032  0.0000520   0.000032689
                          ***Energy convergence achieved***
  8   -115.6405765315  -0.000000018574 0.00002985  0.00000264  0.0000133   0.000016204

            ***Energy convergence in two consecutive cycles with***
                    ***'reasonable' density convergence***
                       *** signaling convergence ***

                    *** KDIIS BlockDiag ( 0.000 sec) ***

               *****************************************************
               *                     SUCCESS                       *
               *           SCF CONVERGED AFTER   9 CYCLES          *
               *****************************************************

Setting up the final grid:

General Integration Accuracy     IntAcc      ...  4.670
Radial Grid Type                 RadialGrid  ... Gauss-Chebyshev
Angular Grid (max. acc.)         AngularGrid ... Lebedev-302
Angular grid pruning method      GridPruning ... 3 (G Style)
Weight generation scheme         WeightScheme... Becke
Basis function cutoff            BFCut       ...    1.0000e-10
Integration weight cutoff        WCut        ...    1.0000e-14
Grids for H and He will be reduced by one unit

# of grid points (after initial pruning)     ...  26000 (   0.0 sec)
# of grid points (after weights+screening)   ...  25185 (   0.0 sec)
nearest neighbour list constructed           ...    0.0 sec
Grid point re-assignment to atoms done       ...    0.0 sec
Grid point division into batches done        ...    0.1 sec
Reduced shell lists constructed in    0.2 sec

Total number of grid points                  ...    25185
Total number of batches                      ...      396
Average number of points per batch           ...       63
Average number of grid points per atom       ...     4198
Average number of shells per batch           ...    16.14 (80.68%)
Average number of basis functions per batch  ...    29.61 (82.24%)
Average number of large shells per batch     ...    14.21 (88.09%)
Average number of large basis fcns per batch ...    26.32 (88.91%)
Maximum spatial batch extension              ...  18.65, 18.46, 16.88 au
Average spatial batch extension              ...   3.06,  3.01,  3.00 au

Final grid set up in    0.2 sec
Final integration                            ... done (   0.2 sec)
Change in XC energy                          ...    -0.000135024
Integrated number of electrons               ...    18.000025830
Previous integrated no of electrons          ...    17.996975420

----------------
TOTAL SCF ENERGY
----------------

Total Energy       :         -115.64071156 Eh           -3146.74374 eV

Components:
Nuclear Repulsion  :           36.53306917 Eh             994.11535 eV
Electronic Energy  :         -152.17378073 Eh           -4140.85909 eV
One Electron Energy:         -229.68761180 Eh           -6250.11767 eV
Two Electron Energy:           77.51383106 Eh            2109.25858 eV

Virial components:
Potential Energy   :         -230.38516935 Eh           -6269.09917 eV
Kinetic Energy     :          114.74445779 Eh            3122.35543 eV
Virial Ratio       :            2.00781087


DFT components:
N(Alpha)           :        9.000012914887 electrons
N(Beta)            :        9.000012914887 electrons
N(Total)           :       18.000025829773 electrons
E(XC)              :      -10.584059334087 Eh       

---------------
SCF CONVERGENCE
---------------

  Last Energy change         ...   -2.8175e-09  Tolerance :   1.0000e-06
  Last MAX-Density change    ...    1.2791e-05  Tolerance :   1.0000e-05
  Last RMS-Density change    ...    1.3286e-06  Tolerance :   1.0000e-06
  Last DIIS Error            ...    3.8371e-06  Tolerance :   1.0000e-06

             **** THE GBW FILE WAS UPDATED (Scan_14.gbw) ****
             **** DENSITY FILE WAS UPDATED (Scan_14.scfp.tmp) ****
             **** ENERGY FILE WAS UPDATED (Scan_14.en.tmp) ****
----------------
ORBITAL ENERGIES
----------------

  NO   OCC          E(Eh)            E(eV) 
   0   2.0000     -19.228155      -523.2247 
   1   2.0000     -10.334859      -281.2258 
   2   2.0000      -1.055466       -28.7207 
   3   2.0000      -0.806189       -21.9375 
   4   2.0000      -0.556250       -15.1363 
   5   2.0000      -0.537806       -14.6344 
   6   2.0000      -0.497753       -13.5446 
   7   2.0000      -0.416903       -11.3445 
   8   2.0000      -0.353221        -9.6116 
   9   0.0000       0.119545         3.2530 
  10   0.0000       0.196940         5.3590 
  11   0.0000       0.252317         6.8659 
  12   0.0000       0.262214         7.1352 
  13   0.0000       0.262802         7.1512 
  14   0.0000       0.619125        16.8472 
  15   0.0000       0.645213        17.5572 
  16   0.0000       0.651936        17.7401 
  17   0.0000       0.932455        25.3734 
  18   0.0000       0.971272        26.4296 
  19   0.0000       0.984463        26.7886 
  20   0.0000       1.008175        27.4338 
  21   0.0000       1.079173        29.3658 
  22   0.0000       1.101045        29.9610 
  23   0.0000       1.165853        31.7245 
  24   0.0000       1.244794        33.8726 
  25   0.0000       1.617385        44.0113 
  26   0.0000       1.639070        44.6014 
  27   0.0000       1.708689        46.4958 
  28   0.0000       1.852785        50.4168 
  29   0.0000       1.896582        51.6086 
  30   0.0000       2.117371        57.6166 
  31   0.0000       2.159975        58.7759 
  32   0.0000       2.324114        63.2423 
  33   0.0000       2.327211        63.3266 
  34   0.0000       2.575904        70.0939 
  35   0.0000       2.761853        75.1538 

                    ********************************
                    * MULLIKEN POPULATION ANALYSIS *
                    ********************************

-----------------------
MULLIKEN ATOMIC CHARGES
-----------------------
   0 C :   -0.308670
   1 O :   -0.680430
   2 H :    0.189575
   3 H :    0.189609
   4 H :    0.207777
   5 H :    0.402139
Sum of atomic charges:    0.0000000

--------------------------------
MULLIKEN REDUCED ORBITAL CHARGES
--------------------------------
  0 C s       :     3.340468  s :     3.340468
      pz      :     1.113128  p :     2.932760
      px      :     0.708696
      py      :     1.110936
      dz2     :     0.008898  d :     0.035442
      dxz     :     0.005357
      dyz     :     0.006560
      dx2y2   :     0.009246
      dxy     :     0.005381
  1 O s       :     3.919611  s :     3.919611
      pz      :     1.703237  p :     4.739349
      px      :     1.285192
      py      :     1.750919
      dz2     :     0.003002  d :     0.021470
      dxz     :     0.003079
      dyz     :     0.008552
      dx2y2   :     0.004216
      dxy     :     0.002621
  2 H s       :     0.810425  s :     0.810425
  3 H s       :     0.810391  s :     0.810391
  4 H s       :     0.792223  s :     0.792223
  5 H s       :     0.597861  s :     0.597861


                     *******************************
                     * LOEWDIN POPULATION ANALYSIS *
                     *******************************

----------------------
LOEWDIN ATOMIC CHARGES
----------------------
   0 C :   -0.213298
   1 O :   -0.518176
   2 H :    0.140416
   3 H :    0.140198
   4 H :    0.152551
   5 H :    0.298310

-------------------------------
LOEWDIN REDUCED ORBITAL CHARGES
-------------------------------
  0 C s       :     3.046108  s :     3.046108
      pz      :     1.163441  p :     3.104102
      px      :     0.777881
      py      :     1.162780
      dz2     :     0.016089  d :     0.063088
      dxz     :     0.008933
      dyz     :     0.011739
      dx2y2   :     0.017347
      dxy     :     0.008980
  1 O s       :     3.693087  s :     3.693087
      pz      :     1.718675  p :     4.793860
      px      :     1.312011
      py      :     1.763175
      dz2     :     0.004082  d :     0.031228
      dxz     :     0.004865
      dyz     :     0.011211
      dx2y2   :     0.006859
      dxy     :     0.004212
  2 H s       :     0.859584  s :     0.859584
  3 H s       :     0.859802  s :     0.859802
  4 H s       :     0.847449  s :     0.847449
  5 H s       :     0.701690  s :     0.701690


                      *****************************
                      * MAYER POPULATION ANALYSIS *
                      *****************************

  NA   - Mulliken gross atomic population
  ZA   - Total nuclear charge
  QA   - Mulliken gross atomic charge
  VA   - Mayer's total valence
  BVA  - Mayer's bonded valence
  FA   - Mayer's free valence

  ATOM       NA         ZA         QA         VA         BVA        FA
  0 C      6.3087     6.0000    -0.3087     3.7571     3.7571     0.0000
  1 O      8.6804     8.0000    -0.6804     1.7209     1.7209    -0.0000
  2 H      0.8104     1.0000     0.1896     0.9221     0.9221     0.0000
  3 H      0.8104     1.0000     0.1896     0.9219     0.9219     0.0000
  4 H      0.7922     1.0000     0.2078     0.9255     0.9255    -0.0000
  5 H      0.5979     1.0000     0.4021     0.7952     0.7952     0.0000

  Mayer bond orders larger than 0.1
B(  0-C ,  1-O ) :   0.9336 B(  0-C ,  2-H ) :   0.9389 B(  0-C ,  3-H ) :   0.9387 
B(  0-C ,  4-H ) :   0.9443 B(  1-O ,  5-H ) :   0.7932 

-------
TIMINGS
-------

Total SCF time: 0 days 0 hours 0 min 3 sec 

Total time                  ....       3.762 sec
Sum of individual times     ....       3.616 sec  ( 96.1%)

Fock matrix formation       ....       3.182 sec  ( 84.6%)
  XC integration            ....       1.003 sec  ( 31.5% of F)
    Basis function eval.    ....       0.380 sec  ( 37.9% of XC)
    Density eval.           ....       0.048 sec  (  4.8% of XC)
    XC-Functional eval.     ....       0.271 sec  ( 27.0% of XC)
    XC-Potential eval.      ....       0.049 sec  (  4.8% of XC)
Diagonalization             ....       0.006 sec  (  0.1%)
Density matrix formation    ....       0.000 sec  (  0.0%)
Population analysis         ....       0.013 sec  (  0.3%)
Initial guess               ....       0.142 sec  (  3.8%)
Orbital Transformation      ....       0.000 sec  (  0.0%)
Orbital Orthonormalization  ....       0.000 sec  (  0.0%)
DIIS solution               ....       0.000 sec  (  0.0%)
Grid generation             ....       0.274 sec  (  7.3%)


-------------------------------------------------------------------------------
                          DFT DISPERSION CORRECTION                            
                                                                               
                              DFTD3 V3.1  Rev 1                                
                              USING zero damping                               
-------------------------------------------------------------------------------
The omegaB97X-D3 functional is recognized. Fit by Chai et al.
Active option DFTDOPT                   ...         3   

molecular C6(AA) [au] = 212.964370 


            DFT-D V3
 parameters
 s6 scaling factor         :     1.0000 
 rs6 scaling factor        :     1.2810 
 s8 scaling factor         :     1.0000 
 rs8 scaling factor        :     1.0940 
 Damping factor alpha6     :    14.0000 
 Damping factor alpha8     :    16.0000 
 ad hoc parameters k1-k3   :    16.0000     1.3333    -4.0000 

 Edisp/kcal,au: -0.216073652934  -0.000344335247 
 E6   /kcal   :  -0.042665195 
 E8   /kcal   :  -0.173408458 
 % E8         :  80.254328059 

-------------------------   ----------------
Dispersion correction           -0.000344335
-------------------------   ----------------


-------------------------   --------------------
FINAL SINGLE POINT ENERGY      -115.641055893939
-------------------------   --------------------


                            ***************************************
                            *     ORCA property calculations      *
                            ***************************************

                                    ---------------------
                                    Active property flags
                                    ---------------------
   (+) Dipole Moment


------------------------------------------------------------------------------
                       ORCA ELECTRIC PROPERTIES CALCULATION
------------------------------------------------------------------------------

Dipole Moment Calculation                       ... on
Quadrupole Moment Calculation                   ... off
Polarizability Calculation                      ... off
GBWName                                         ... Scan_14.gbw
Electron density file                           ... Scan_14.scfp.tmp

-------------
DIPOLE MOMENT
-------------
                                X             Y             Z
Electronic contribution:      1.46610      -0.21883      -0.25014
Nuclear contribution   :     -2.15988       0.66400       0.74287
                        -----------------------------------------
Total Dipole Moment    :     -0.69378       0.44517       0.49273
                        -----------------------------------------
Magnitude (a.u.)       :      0.96036
Magnitude (Debye)      :      2.44104


Timings for individual modules:

Sum of individual times         ...        4.111 sec (=   0.069 min)
GTO integral calculation        ...        0.312 sec (=   0.005 min)   7.6 %
SCF iterations                  ...        3.799 sec (=   0.063 min)  92.4 %
                             ****ORCA TERMINATED NORMALLY****
TOTAL RUN TIME: 0 days 0 hours 0 minutes 4 seconds 454 msec
