
                                 *****************
                                 * O   R   C   A *
                                 *****************

           --- An Ab Initio, DFT and Semiempirical electronic structure package ---

                  #######################################################
                  #                        -***-                        #
                  #  Department of molecular theory and spectroscopy    #
                  #              Directorship: Frank Neese              #
                  # Max Planck Institute for Chemical Energy Conversion #
                  #                  D-45470 Muelheim/Ruhr              #
                  #                       Germany                       #
                  #                                                     #
                  #                  All rights reserved                #
                  #                        -***-                        #
                  #######################################################


                         Program Version 4.0.0.2 - RELEASE -


 With contributions from (in alphabetic order):
   Daniel Aravena         : Magnetic Properties
   Michael Atanasov       : Ab Initio Ligand Field Theory
   Ute Becker             : Parallelization
   Martin Brehm           : Molecular dynamics
   Dmytro Bykov           : SCF Hessian
   Vijay G. Chilkuri      : MRCI spin determinant printing
   Dipayan Datta          : RHF DLPNO-CCSD density
   Achintya Kumar Dutta   : EOM-CC, STEOM-CC
   Dmitry Ganyushin       : Spin-Orbit,Spin-Spin,Magnetic field MRCI
   Yang Guo               : DLPNO-NEVPT2, CIM, IAO-localization
   Andreas Hansen         : Spin unrestricted coupled pair/coupled cluster methods
   Lee Huntington         : MR-EOM, pCC
   Robert Izsak           : Overlap fitted RIJCOSX, COSX-SCS-MP3, EOM
   Christian Kollmar      : KDIIS, OOCD, Brueckner-CCSD(T), CCSD density
   Simone Kossmann        : Meta GGA functionals, TD-DFT gradient, OOMP2, MP2 Hessian
   Martin Krupicka        : AUTO-CI
   Dagmar Lenk            : GEPOL surface
   Dimitrios Liakos       : Extrapolation schemes; parallel MDCI
   Dimitrios Manganas     : ROCIS; embedding schemes
   Dimitrios Pantazis     : SARC Basis sets
   Taras Petrenko         : DFT Hessian,TD-DFT gradient, ASA, ECA, R-Raman, ABS, FL, XAS/XES, NRVS
   Peter Pinski           : DLPNO-MP2
   Christoph Reimann      : Effective Core Potentials
   Marius Retegan         : Local ZFS, SOC
   Christoph Riplinger    : Optimizer, TS searches, QM/MM, DLPNO-CCSD(T), (RO)-DLPNO pert. Triples
   Tobias Risthaus        : Range-separated hybrids, TD-DFT gradient, RPA, STAB
   Michael Roemelt        : Restricted open shell CIS
   Masaaki Saitow         : Open-shell DLPNO
   Barbara Sandhoefer     : DKH picture change effects
   Kantharuban Sivalingam : CASSCF convergence, NEVPT2, FIC-MRCI
   Georgi Stoychev        : AutoAux
   Boris Wezisla          : Elementary symmetry handling
   Frank Wennmohs         : Technical directorship


 We gratefully acknowledge several colleagues who have allowed us to
 interface, adapt or use parts of their codes:
   Stefan Grimme, W. Hujo, H. Kruse,             : VdW corrections, initial TS optimization,
                  C. Bannwarth                     DFT functionals, gCP, sTDA/sTD-DF
   Ed Valeev                                     : LibInt (2-el integral package), F12 methods
   Garnet Chan, S. Sharma, J. Yang, R. Olivares  : DMRG
   Ulf Ekstrom                                   : XCFun DFT Library
   Mihaly Kallay                                 : mrcc  (arbitrary order and MRCC methods)
   Jiri Pittner, Ondrej Demel                    : Mk-CCSD
   Frank Weinhold                                : gennbo (NPA and NBO analysis)
   Christopher J. Cramer and Donald G. Truhlar   : smd solvation model


 Your calculation uses the libint2 library for the computation of 2-el integrals
 For citations please refer to: http://libint.valeyev.net

 This ORCA versions uses:
   CBLAS   interface :  Fast vector & matrix operations
   LAPACKE interface :  Fast linear algebra routines
   SCALAPACK package :  Parallel linear algebra routines


Your calculation utilizes the atom-pairwise dispersion correction
with the zero-damping scheme (D30)
Cite in your paper:
S.Grimme, J.Antony, S.Ehrlich and H.Krieg, J.Chem.Phys., 132, (2010), 154104 
   

XCFun DFT library Copyright 2009-2010 Ulf Ekstrom and contributors.
See http://admol.org/xcfun for more information. This is free soft-
ware; see the source code for copying conditions. There is ABSOLUTELY
NO WARRANTY; not even for MERCHANTABILITY or FITNESS FOR A PARTICULAR
PURPOSE. For details see the documentation. Scientific users of this 
library should cite U. Ekstrom, L. Visscher, R. Bast, A. J. Thorvald-
sen and K. Ruud; J.Chem.Theor.Comp. 2010, DOI: 10.1021/ct100117s
XCFun Version 0.99 
Your calculation utilizes the basis: 6-31G(d)
   H-He, Li-Ne : W. J. Hehre, R. Ditchfield and J.A. Pople, J. Chem. Phys. 56, 2257 (1972).
                 Note: He and Ne are unpublished basis sets taken from the Gaussian program.
                 Note: Li and B from J. D. Dill and J. A. Pople, J. Chem. Phys. 62, 2921 (1975).
   Na - Ar     : M. M. Francl, W. J. Pietro, W. J. Hehre, J. S. Binkley, M. S. Gordon, 
                 D. J. DeFrees and J. A. Pople, J. Chem. Phys. 77, 3654 (1982).
   K - Zn      : V. A. Rassolov, J. A. Pople, M. A. Ratner, and T. L. Windus, J. Chem. Phys. 109, 1223 (1998).

================================================================================
                                        WARNINGS
                       Please study these warnings very carefully!
================================================================================

Warning: TCutStore was < 0. Adjusted to Thresh (uncritical)

INFO   : the flag for use of LIBINT has been found!

================================================================================
                                       INPUT FILE
================================================================================
NAME = initial16.inp
|  1> ! WB97X-D3 6-31G(d) VerySlowConv
|  2> ! KDIIS NOSOSCF
|  3> %base "Scan_16"
|  4> 
|  5> %scf
|  6> maxiter 999
|  7> end
|  8> 
|  9> * xyz 0 1
| 10> C         -4.241049089895    2.352546690837    0.046981906713
| 11> O         -2.316554185956    2.218790526554   -0.110739274386
| 12> H         -4.386736316152    3.393531108400   -0.171565315575
| 13> H         -4.380035865071    2.034255493632    1.062860965192
| 14> H         -4.511747849351    1.653976612570   -0.720770982221
| 15> H         -2.050986693576    2.838529568006    0.570232700277
| 16> **                         ****END OF INPUT****
================================================================================

                       ****************************
                       * Single Point Calculation *
                       ****************************

---------------------------------
CARTESIAN COORDINATES (ANGSTROEM)
---------------------------------
  C     -4.241049    2.352547    0.046982
  O     -2.316554    2.218791   -0.110739
  H     -4.386736    3.393531   -0.171565
  H     -4.380036    2.034255    1.062861
  H     -4.511748    1.653977   -0.720771
  H     -2.050987    2.838530    0.570233

----------------------------
CARTESIAN COORDINATES (A.U.)
----------------------------
  NO LB      ZA    FRAG     MASS         X           Y           Z
   0 C     6.0000    0    12.011   -8.014421    4.445669    0.088783
   1 O     8.0000    0    15.999   -4.377653    4.192906   -0.209267
   2 H     1.0000    0     1.008   -8.289730    6.412844   -0.324211
   3 H     1.0000    0     1.008   -8.277068    3.844186    2.008516
   4 H     1.0000    0     1.008   -8.525968    3.125563   -1.362060
   5 H     1.0000    0     1.008   -3.875803    5.364044    1.077584

--------------------------------
INTERNAL COORDINATES (ANGSTROEM)
--------------------------------
 C      0   0   0     0.000000000000     0.00000000     0.00000000
 O      1   0   0     1.935574157127     0.00000000     0.00000000
 H      1   2   0     1.073608966930   100.68087544     0.00000000
 H      1   2   3     1.073609273129   100.68055515   239.03378363
 H      1   2   3     1.072717330469    98.48686478   119.51697384
 H      2   1   3     0.958292962922    99.95906477    60.48282162

---------------------------
INTERNAL COORDINATES (A.U.)
---------------------------
 C      0   0   0     0.000000000000     0.00000000     0.00000000
 O      1   0   0     3.657705068866     0.00000000     0.00000000
 H      1   2   0     2.028826922420   100.68087544     0.00000000
 H      1   2   3     2.028827501052   100.68055515   239.03378363
 H      1   2   3     2.027141973697    98.48686478   119.51697384
 H      2   1   3     1.810911255986    99.95906477    60.48282162

---------------------
BASIS SET INFORMATION
---------------------
There are 3 groups of distinct atoms

 Group   1 Type C   : 10s4p1d contracted to 3s2p1d pattern {631/31/1}
 Group   2 Type O   : 10s4p1d contracted to 3s2p1d pattern {631/31/1}
 Group   3 Type H   : 4s contracted to 2s pattern {31}

Atom   0C    basis set group =>   1
Atom   1O    basis set group =>   2
Atom   2H    basis set group =>   3
Atom   3H    basis set group =>   3
Atom   4H    basis set group =>   3
Atom   5H    basis set group =>   3
------------------------------------------------------------------------------
                           ORCA GTO INTEGRAL CALCULATION
------------------------------------------------------------------------------

                         BASIS SET STATISTICS AND STARTUP INFO

 # of primitive gaussian shells          ...   46
 # of primitive gaussian functions       ...   70
 # of contracted shells                  ...   20
 # of contracted basis functions         ...   36
 Highest angular momentum                ...    2
 Maximum contraction depth               ...    6
 Integral package used                   ... LIBINT
 Integral threshhold            Thresh   ...  1.000e-10
 Primitive cut-off              TCut     ...  1.000e-11


------------------------------ INTEGRAL EVALUATION ----------------------------


 * One electron integrals 
 Pre-screening matrix                    ... done
 Shell pair data                         ... done (   0.000 sec)

-------------------------------------------------------------------------------
                                 ORCA SCF
-------------------------------------------------------------------------------

------------
SCF SETTINGS
------------
Hamiltonian:
 Density Functional     Method          .... DFT(GTOs)
 Exchange Functional    Exchange        .... WB97X-D3
 Correlation Functional Correlation     .... WB97X-D3
 Gradients option       PostSCFGGA      .... off
 Hybrid DFT is turned on
   Fraction HF Exchange ScalHFX         ....  0.195728
   Scaling of DF-GGA-X  ScalDFX         ....  0.000000
   Scaling of DF-GGA-C  ScalDFC         ....  1.000000
   Scaling of DF-LDA-C  ScalLDAC        ....  1.000000
   Perturbative correction              ....  0.000000
 Long-range corrected/Screened/Range-Separated Hybrid DFT is turned on
   Amount of maximum screened exact exchange              ....  0.804272
   Range separation parameter mu (erf(mu*r12)/r12)        ....  0.250000


General Settings:
 Integral files         IntName         .... Scan_16
 Hartree-Fock type      HFTyp           .... RHF
 Total Charge           Charge          ....    0
 Multiplicity           Mult            ....    1
 Number of Electrons    NEL             ....   18
 Basis Dimension        Dim             ....   36
 Nuclear Repulsion      ENuc            ....     34.6163774958 Eh

Convergence Acceleration:
 DIIS                   CNVDIIS         .... on
   Start iteration      DIISMaxIt       ....     0
   Startup error        DIISStart       ....  0.200000
   # of expansion vecs  DIISMaxEq       ....     5
   Bias factor          DIISBfac        ....   1.050
   Max. coefficient     DIISMaxC        ....  10.000
 Newton-Raphson         CNVNR           .... off
 SOSCF                  CNVSOSCF        .... off
 Level Shifting         CNVShift        .... off
 Zerner damping         CNVZerner       .... off
 Static damping         CNVDamp         .... off
 Fernandez-Rico         CNVRico         .... off

SCF Procedure:
 Maximum # iterations   MaxIter         ....   999
 SCF integral mode      SCFMode         .... Direct
   Integral package                     .... LIBINT
 Reset frequeny         DirectResetFreq ....    20
 Integral Threshold     Thresh          ....  1.000e-10 Eh
 Primitive CutOff       TCut            ....  1.000e-11 Eh

Convergence Tolerance:
 Convergence Check Mode ConvCheckMode   .... All-Criteria
 Convergence forced     ConvForced      .... 0
 Energy Change          TolE            ....  1.000e-06 Eh
 Max Density Change     TolMaxP         ....  1.000e-05
 RMS Density Change     TolRMSP         ....  1.000e-06
 DIIS Error             TolErr          ....  1.000e-06


Diagonalization of the overlap matrix:
Smallest eigenvalue                        ... 2.128e-02
Time for diagonalization                   ...    0.001 sec
Threshold for overlap eigenvalues          ... 1.000e-08
Number of eigenvalues below threshold      ... 0
Time for construction of square roots      ...    0.005 sec
Total time needed                          ...    0.006 sec

-------------------
DFT GRID GENERATION
-------------------

General Integration Accuracy     IntAcc      ...  4.340
Radial Grid Type                 RadialGrid  ... Gauss-Chebyshev
Angular Grid (max. acc.)         AngularGrid ... Lebedev-110
Angular grid pruning method      GridPruning ... 3 (G Style)
Weight generation scheme         WeightScheme... Becke
Basis function cutoff            BFCut       ...    1.0000e-10
Integration weight cutoff        WCut        ...    1.0000e-14
Grids for H and He will be reduced by one unit

# of grid points (after initial pruning)     ...   6548 (   0.0 sec)
# of grid points (after weights+screening)   ...   6390 (   0.0 sec)
nearest neighbour list constructed           ...    0.0 sec
Grid point re-assignment to atoms done       ...    0.0 sec
Grid point division into batches done        ...    0.0 sec
Reduced shell lists constructed in    0.0 sec

Total number of grid points                  ...     6390
Total number of batches                      ...      103
Average number of points per batch           ...       62
Average number of grid points per atom       ...     1065
Average number of shells per batch           ...    17.47 (87.36%)
Average number of basis functions per batch  ...    31.91 (88.65%)
Average number of large shells per batch     ...    15.44 (88.39%)
Average number of large basis fcns per batch ...    28.44 (89.12%)
Maximum spatial batch extension              ...  19.49, 21.59, 25.60 au
Average spatial batch extension              ...   4.81,  4.79,  4.65 au

Time for grid setup =    0.049 sec

------------------------------
INITIAL GUESS: MODEL POTENTIAL
------------------------------
Loading Hartree-Fock densities                     ... done
Calculating cut-offs                               ... done
Setting up the integral package                    ... done
Initializing the effective Hamiltonian             ... done
Starting the Coulomb interaction                   ... done (   0.0 sec)
Reading the grid                                   ... done
Mapping shells                                     ... done
Starting the XC term evaluation                    ... done (   0.0 sec)
  promolecular density results
     # of electrons  =     17.995468280
     EX              =    -14.341041303
     EC              =     -0.556132386
     EX+EC           =    -14.897173689
Transforming the Hamiltonian                       ... done (   0.0 sec)
Diagonalizing the Hamiltonian                      ... done (   0.0 sec)
Back transforming the eigenvectors                 ... done (   0.0 sec)
Now organizing SCF variables                       ... done
                      ------------------
                      INITIAL GUESS DONE (   0.2 sec)
                      ------------------
--------------
SCF ITERATIONS
--------------
ITER       Energy         Delta-E        Max-DP      RMS-DP      [F,P]   Gradient Norm
               ***  Starting incremental Fock matrix formation  ***
                             ****Resetting KDIIS****
                             ****Turning on KDIIS(Cayley)****
  0   -115.5103104032   0.000000000000 0.04021953  0.00238068  0.1173492   0.112726404
  1   -115.5474336690  -0.037123265773 0.05426179  0.00307053  0.0885246   0.086608281
  2   -115.5756892921  -0.028255623140 0.03722561  0.00302950  0.0641428   0.062688555
  3   -115.5946056098  -0.018916317723 0.05966046  0.00402458  0.0418320   0.038834570
  4   -115.6042410556  -0.009635445733 0.00546428  0.00060401  0.0153254   0.006705414
  5   -115.6047777593  -0.000536703750 0.02033269  0.00208052  0.0131214   0.005054579
  6   -115.6057041517  -0.000926392340 0.00681550  0.00050096  0.0032725   0.002362413
  7   -115.6057784477  -0.000074296024 0.00029427  0.00004275  0.0002949   0.000318391
  8   -115.6057795390  -0.000001091334 0.00021759  0.00001576  0.0001001   0.000082709
                          ***Energy convergence achieved***
  9   -115.6057796285  -0.000000089456 0.00006650  0.00000537  0.0000444   0.000034422

            ***Energy convergence in two consecutive cycles with***
                    ***'reasonable' density convergence***
                       *** signaling convergence ***

                    *** KDIIS BlockDiag ( 0.000 sec) ***

               *****************************************************
               *                     SUCCESS                       *
               *           SCF CONVERGED AFTER  10 CYCLES          *
               *****************************************************

Setting up the final grid:

General Integration Accuracy     IntAcc      ...  4.670
Radial Grid Type                 RadialGrid  ... Gauss-Chebyshev
Angular Grid (max. acc.)         AngularGrid ... Lebedev-302
Angular grid pruning method      GridPruning ... 3 (G Style)
Weight generation scheme         WeightScheme... Becke
Basis function cutoff            BFCut       ...    1.0000e-10
Integration weight cutoff        WCut        ...    1.0000e-14
Grids for H and He will be reduced by one unit

# of grid points (after initial pruning)     ...  26000 (   0.0 sec)
# of grid points (after weights+screening)   ...  25227 (   0.0 sec)
nearest neighbour list constructed           ...    0.0 sec
Grid point re-assignment to atoms done       ...    0.0 sec
Grid point division into batches done        ...    0.1 sec
Reduced shell lists constructed in    0.2 sec

Total number of grid points                  ...    25227
Total number of batches                      ...      396
Average number of points per batch           ...       63
Average number of grid points per atom       ...     4204
Average number of shells per batch           ...    15.97 (79.85%)
Average number of basis functions per batch  ...    29.32 (81.44%)
Average number of large shells per batch     ...    13.92 (87.15%)
Average number of large basis fcns per batch ...    25.70 (87.64%)
Maximum spatial batch extension              ...  18.78, 18.45, 18.20 au
Average spatial batch extension              ...   3.07,  3.02,  3.02 au

Final grid set up in    0.2 sec
Final integration                            ... done (   0.2 sec)
Change in XC energy                          ...    -0.000215214
Integrated number of electrons               ...    18.000022790
Previous integrated no of electrons          ...    17.997444128

----------------
TOTAL SCF ENERGY
----------------

Total Energy       :         -115.60599485 Eh           -3145.79905 eV

Components:
Nuclear Repulsion  :           34.61637750 Eh             941.95952 eV
Electronic Energy  :         -150.22237235 Eh           -4087.75857 eV
One Electron Energy:         -225.88312835 Eh           -6146.59241 eV
Two Electron Energy:           75.66075600 Eh            2058.83384 eV

Virial components:
Potential Energy   :         -230.28583822 Eh           -6266.39624 eV
Kinetic Energy     :          114.67984336 Eh            3120.59719 eV
Virial Ratio       :            2.00807597


DFT components:
N(Alpha)           :        9.000011395216 electrons
N(Beta)            :        9.000011395216 electrons
N(Total)           :       18.000022790432 electrons
E(XC)              :      -10.556489770631 Eh       

---------------
SCF CONVERGENCE
---------------

  Last Energy change         ...   -1.2059e-08  Tolerance :   1.0000e-06
  Last MAX-Density change    ...    1.8972e-05  Tolerance :   1.0000e-05
  Last RMS-Density change    ...    1.3875e-06  Tolerance :   1.0000e-06
  Last DIIS Error            ...    1.5118e-05  Tolerance :   1.0000e-06

             **** THE GBW FILE WAS UPDATED (Scan_16.gbw) ****
             **** DENSITY FILE WAS UPDATED (Scan_16.scfp.tmp) ****
             **** ENERGY FILE WAS UPDATED (Scan_16.en.tmp) ****
----------------
ORBITAL ENERGIES
----------------

  NO   OCC          E(Eh)            E(eV) 
   0   2.0000     -19.222626      -523.0743 
   1   2.0000     -10.347407      -281.5673 
   2   2.0000      -1.032707       -28.1014 
   3   2.0000      -0.815201       -22.1827 
   4   2.0000      -0.550774       -14.9873 
   5   2.0000      -0.546067       -14.8592 
   6   2.0000      -0.490983       -13.3603 
   7   2.0000      -0.394212       -10.7271 
   8   2.0000      -0.345679        -9.4064 
   9   0.0000       0.061105         1.6628 
  10   0.0000       0.191361         5.2072 
  11   0.0000       0.249413         6.7869 
  12   0.0000       0.258176         7.0253 
  13   0.0000       0.260681         7.0935 
  14   0.0000       0.624667        16.9980 
  15   0.0000       0.636406        17.3175 
  16   0.0000       0.637459        17.3461 
  17   0.0000       0.908648        24.7256 
  18   0.0000       0.968703        26.3598 
  19   0.0000       0.989013        26.9124 
  20   0.0000       1.008109        27.4320 
  21   0.0000       1.073477        29.2108 
  22   0.0000       1.100039        29.9336 
  23   0.0000       1.149319        31.2746 
  24   0.0000       1.254075        34.1251 
  25   0.0000       1.612020        43.8653 
  26   0.0000       1.691395        46.0252 
  27   0.0000       1.704461        46.3807 
  28   0.0000       1.842727        50.1431 
  29   0.0000       1.910327        51.9826 
  30   0.0000       2.002953        54.5031 
  31   0.0000       2.050614        55.8000 
  32   0.0000       2.313053        62.9414 
  33   0.0000       2.319328        63.1121 
  34   0.0000       2.501558        68.0709 
  35   0.0000       2.654924        72.2442 

                    ********************************
                    * MULLIKEN POPULATION ANALYSIS *
                    ********************************

-----------------------
MULLIKEN ATOMIC CHARGES
-----------------------
   0 C :   -0.358570
   1 O :   -0.672679
   2 H :    0.206534
   3 H :    0.206571
   4 H :    0.221836
   5 H :    0.396307
Sum of atomic charges:   -0.0000000

--------------------------------
MULLIKEN REDUCED ORBITAL CHARGES
--------------------------------
  0 C s       :     3.383565  s :     3.383565
      pz      :     1.117417  p :     2.946711
      px      :     0.713632
      py      :     1.115661
      dz2     :     0.008277  d :     0.028295
      dxz     :     0.002885
      dyz     :     0.007061
      dx2y2   :     0.007201
      dxy     :     0.002871
  1 O s       :     3.933725  s :     3.933725
      pz      :     1.694210  p :     4.720156
      px      :     1.280813
      py      :     1.745133
      dz2     :     0.002713  d :     0.018799
      dxz     :     0.002221
      dyz     :     0.008838
      dx2y2   :     0.003173
      dxy     :     0.001853
  2 H s       :     0.793466  s :     0.793466
  3 H s       :     0.793429  s :     0.793429
  4 H s       :     0.778164  s :     0.778164
  5 H s       :     0.603693  s :     0.603693


                     *******************************
                     * LOEWDIN POPULATION ANALYSIS *
                     *******************************

----------------------
LOEWDIN ATOMIC CHARGES
----------------------
   0 C :   -0.218844
   1 O :   -0.536161
   2 H :    0.151561
   3 H :    0.151470
   4 H :    0.161155
   5 H :    0.290819

-------------------------------
LOEWDIN REDUCED ORBITAL CHARGES
-------------------------------
  0 C s       :     3.079991  s :     3.079991
      pz      :     1.168777  p :     3.090732
      px      :     0.753678
      py      :     1.168278
      dz2     :     0.014438  d :     0.048121
      dxz     :     0.004341
      dyz     :     0.012664
      dx2y2   :     0.012369
      dxy     :     0.004309
  1 O s       :     3.740646  s :     3.740646
      pz      :     1.712718  p :     4.769521
      px      :     1.296667
      py      :     1.760136
      dz2     :     0.003512  d :     0.025994
      dxz     :     0.003122
      dyz     :     0.011809
      dx2y2   :     0.004918
      dxy     :     0.002633
  2 H s       :     0.848439  s :     0.848439
  3 H s       :     0.848530  s :     0.848530
  4 H s       :     0.838845  s :     0.838845
  5 H s       :     0.709181  s :     0.709181


                      *****************************
                      * MAYER POPULATION ANALYSIS *
                      *****************************

  NA   - Mulliken gross atomic population
  ZA   - Total nuclear charge
  QA   - Mulliken gross atomic charge
  VA   - Mayer's total valence
  BVA  - Mayer's bonded valence
  FA   - Mayer's free valence

  ATOM       NA         ZA         QA         VA         BVA        FA
  0 C      6.3586     6.0000    -0.3586     3.7412     3.7412    -0.0000
  1 O      8.6727     8.0000    -0.6727     1.7276     1.7276    -0.0000
  2 H      0.7935     1.0000     0.2065     0.9202     0.9202     0.0000
  3 H      0.7934     1.0000     0.2066     0.9200     0.9200    -0.0000
  4 H      0.7782     1.0000     0.2218     0.9222     0.9222     0.0000
  5 H      0.6037     1.0000     0.3963     0.7985     0.7985    -0.0000

  Mayer bond orders larger than 0.1
B(  0-C ,  1-O ) :   0.9348 B(  0-C ,  2-H ) :   0.9343 B(  0-C ,  3-H ) :   0.9341 
B(  0-C ,  4-H ) :   0.9375 B(  1-O ,  5-H ) :   0.7982 

-------
TIMINGS
-------

Total SCF time: 0 days 0 hours 0 min 4 sec 

Total time                  ....       4.066 sec
Sum of individual times     ....       3.891 sec  ( 95.7%)

Fock matrix formation       ....       3.457 sec  ( 85.0%)
  XC integration            ....       1.073 sec  ( 31.0% of F)
    Basis function eval.    ....       0.401 sec  ( 37.4% of XC)
    Density eval.           ....       0.052 sec  (  4.8% of XC)
    XC-Functional eval.     ....       0.276 sec  ( 25.8% of XC)
    XC-Potential eval.      ....       0.050 sec  (  4.7% of XC)
Diagonalization             ....       0.006 sec  (  0.1%)
Density matrix formation    ....       0.000 sec  (  0.0%)
Population analysis         ....       0.014 sec  (  0.3%)
Initial guess               ....       0.145 sec  (  3.6%)
Orbital Transformation      ....       0.000 sec  (  0.0%)
Orbital Orthonormalization  ....       0.000 sec  (  0.0%)
DIIS solution               ....       0.000 sec  (  0.0%)
Grid generation             ....       0.268 sec  (  6.6%)


-------------------------------------------------------------------------------
                          DFT DISPERSION CORRECTION                            
                                                                               
                              DFTD3 V3.1  Rev 1                                
                              USING zero damping                               
-------------------------------------------------------------------------------
The omegaB97X-D3 functional is recognized. Fit by Chai et al.
Active option DFTDOPT                   ...         3   

molecular C6(AA) [au] = 237.111977 


            DFT-D V3
 parameters
 s6 scaling factor         :     1.0000 
 rs6 scaling factor        :     1.2810 
 s8 scaling factor         :     1.0000 
 rs8 scaling factor        :     1.0940 
 Damping factor alpha6     :    14.0000 
 Damping factor alpha8     :    16.0000 
 ad hoc parameters k1-k3   :    16.0000     1.3333    -4.0000 

 Edisp/kcal,au: -0.294533111121  -0.000469368339 
 E6   /kcal   :  -0.057967335 
 E8   /kcal   :  -0.236565776 
 % E8         :  80.318907208 

-------------------------   ----------------
Dispersion correction           -0.000469368
-------------------------   ----------------


-------------------------   --------------------
FINAL SINGLE POINT ENERGY      -115.606464222978
-------------------------   --------------------


                            ***************************************
                            *     ORCA property calculations      *
                            ***************************************

                                    ---------------------
                                    Active property flags
                                    ---------------------
   (+) Dipole Moment


------------------------------------------------------------------------------
                       ORCA ELECTRIC PROPERTIES CALCULATION
------------------------------------------------------------------------------

Dipole Moment Calculation                       ... on
Quadrupole Moment Calculation                   ... off
Polarizability Calculation                      ... off
GBWName                                         ... Scan_16.gbw
Electron density file                           ... Scan_16.scfp.tmp

-------------
DIPOLE MOMENT
-------------
                                X             Y             Z
Electronic contribution:      1.36310      -0.21258      -0.24243
Nuclear contribution   :     -2.25194       0.66775       0.74750
                        -----------------------------------------
Total Dipole Moment    :     -0.88884       0.45517       0.50507
                        -----------------------------------------
Magnitude (a.u.)       :      1.11907
Magnitude (Debye)      :      2.84445


Timings for individual modules:

Sum of individual times         ...        4.399 sec (=   0.073 min)
GTO integral calculation        ...        0.298 sec (=   0.005 min)   6.8 %
SCF iterations                  ...        4.101 sec (=   0.068 min)  93.2 %
                             ****ORCA TERMINATED NORMALLY****
TOTAL RUN TIME: 0 days 0 hours 0 minutes 4 seconds 737 msec
