
                                 *****************
                                 * O   R   C   A *
                                 *****************

           --- An Ab Initio, DFT and Semiempirical electronic structure package ---

                  #######################################################
                  #                        -***-                        #
                  #  Department of molecular theory and spectroscopy    #
                  #              Directorship: Frank Neese              #
                  # Max Planck Institute for Chemical Energy Conversion #
                  #                  D-45470 Muelheim/Ruhr              #
                  #                       Germany                       #
                  #                                                     #
                  #                  All rights reserved                #
                  #                        -***-                        #
                  #######################################################


                         Program Version 4.0.0.2 - RELEASE -


 With contributions from (in alphabetic order):
   Daniel Aravena         : Magnetic Properties
   Michael Atanasov       : Ab Initio Ligand Field Theory
   Ute Becker             : Parallelization
   Martin Brehm           : Molecular dynamics
   Dmytro Bykov           : SCF Hessian
   Vijay G. Chilkuri      : MRCI spin determinant printing
   Dipayan Datta          : RHF DLPNO-CCSD density
   Achintya Kumar Dutta   : EOM-CC, STEOM-CC
   Dmitry Ganyushin       : Spin-Orbit,Spin-Spin,Magnetic field MRCI
   Yang Guo               : DLPNO-NEVPT2, CIM, IAO-localization
   Andreas Hansen         : Spin unrestricted coupled pair/coupled cluster methods
   Lee Huntington         : MR-EOM, pCC
   Robert Izsak           : Overlap fitted RIJCOSX, COSX-SCS-MP3, EOM
   Christian Kollmar      : KDIIS, OOCD, Brueckner-CCSD(T), CCSD density
   Simone Kossmann        : Meta GGA functionals, TD-DFT gradient, OOMP2, MP2 Hessian
   Martin Krupicka        : AUTO-CI
   Dagmar Lenk            : GEPOL surface
   Dimitrios Liakos       : Extrapolation schemes; parallel MDCI
   Dimitrios Manganas     : ROCIS; embedding schemes
   Dimitrios Pantazis     : SARC Basis sets
   Taras Petrenko         : DFT Hessian,TD-DFT gradient, ASA, ECA, R-Raman, ABS, FL, XAS/XES, NRVS
   Peter Pinski           : DLPNO-MP2
   Christoph Reimann      : Effective Core Potentials
   Marius Retegan         : Local ZFS, SOC
   Christoph Riplinger    : Optimizer, TS searches, QM/MM, DLPNO-CCSD(T), (RO)-DLPNO pert. Triples
   Tobias Risthaus        : Range-separated hybrids, TD-DFT gradient, RPA, STAB
   Michael Roemelt        : Restricted open shell CIS
   Masaaki Saitow         : Open-shell DLPNO
   Barbara Sandhoefer     : DKH picture change effects
   Kantharuban Sivalingam : CASSCF convergence, NEVPT2, FIC-MRCI
   Georgi Stoychev        : AutoAux
   Boris Wezisla          : Elementary symmetry handling
   Frank Wennmohs         : Technical directorship


 We gratefully acknowledge several colleagues who have allowed us to
 interface, adapt or use parts of their codes:
   Stefan Grimme, W. Hujo, H. Kruse,             : VdW corrections, initial TS optimization,
                  C. Bannwarth                     DFT functionals, gCP, sTDA/sTD-DF
   Ed Valeev                                     : LibInt (2-el integral package), F12 methods
   Garnet Chan, S. Sharma, J. Yang, R. Olivares  : DMRG
   Ulf Ekstrom                                   : XCFun DFT Library
   Mihaly Kallay                                 : mrcc  (arbitrary order and MRCC methods)
   Jiri Pittner, Ondrej Demel                    : Mk-CCSD
   Frank Weinhold                                : gennbo (NPA and NBO analysis)
   Christopher J. Cramer and Donald G. Truhlar   : smd solvation model


 Your calculation uses the libint2 library for the computation of 2-el integrals
 For citations please refer to: http://libint.valeyev.net

 This ORCA versions uses:
   CBLAS   interface :  Fast vector & matrix operations
   LAPACKE interface :  Fast linear algebra routines
   SCALAPACK package :  Parallel linear algebra routines


Your calculation utilizes the atom-pairwise dispersion correction
with the zero-damping scheme (D30)
Cite in your paper:
S.Grimme, J.Antony, S.Ehrlich and H.Krieg, J.Chem.Phys., 132, (2010), 154104 
   

XCFun DFT library Copyright 2009-2010 Ulf Ekstrom and contributors.
See http://admol.org/xcfun for more information. This is free soft-
ware; see the source code for copying conditions. There is ABSOLUTELY
NO WARRANTY; not even for MERCHANTABILITY or FITNESS FOR A PARTICULAR
PURPOSE. For details see the documentation. Scientific users of this 
library should cite U. Ekstrom, L. Visscher, R. Bast, A. J. Thorvald-
sen and K. Ruud; J.Chem.Theor.Comp. 2010, DOI: 10.1021/ct100117s
XCFun Version 0.99 
Your calculation utilizes the basis: 6-31G(d)
   H-He, Li-Ne : W. J. Hehre, R. Ditchfield and J.A. Pople, J. Chem. Phys. 56, 2257 (1972).
                 Note: He and Ne are unpublished basis sets taken from the Gaussian program.
                 Note: Li and B from J. D. Dill and J. A. Pople, J. Chem. Phys. 62, 2921 (1975).
   Na - Ar     : M. M. Francl, W. J. Pietro, W. J. Hehre, J. S. Binkley, M. S. Gordon, 
                 D. J. DeFrees and J. A. Pople, J. Chem. Phys. 77, 3654 (1982).
   K - Zn      : V. A. Rassolov, J. A. Pople, M. A. Ratner, and T. L. Windus, J. Chem. Phys. 109, 1223 (1998).

================================================================================
                                        WARNINGS
                       Please study these warnings very carefully!
================================================================================

Warning: TCutStore was < 0. Adjusted to Thresh (uncritical)

INFO   : the flag for use of LIBINT has been found!

================================================================================
                                       INPUT FILE
================================================================================
NAME = initial17.inp
|  1> ! WB97X-D3 6-31G(d) VerySlowConv
|  2> ! KDIIS NOSOSCF
|  3> %base "Scan_17"
|  4> 
|  5> %scf
|  6> maxiter 999
|  7> end
|  8> 
|  9> * xyz 0 1
| 10> C         -4.293437277334    2.352666610573    0.047396280281
| 11> O         -2.257649516852    2.219953539308   -0.109771604776
| 12> H         -4.403594802004    3.395816608510   -0.174091911040
| 13> H         -4.396864389515    2.031429142021    1.064974289323
| 14> H         -4.527679940655    1.649371517422   -0.725756647677
| 15> H         -2.007884073641    2.842392582167    0.574249593888
| 16> **                         ****END OF INPUT****
================================================================================

                       ****************************
                       * Single Point Calculation *
                       ****************************

---------------------------------
CARTESIAN COORDINATES (ANGSTROEM)
---------------------------------
  C     -4.293437    2.352667    0.047396
  O     -2.257650    2.219954   -0.109772
  H     -4.403595    3.395817   -0.174092
  H     -4.396864    2.031429    1.064974
  H     -4.527680    1.649372   -0.725757
  H     -2.007884    2.842393    0.574250

----------------------------
CARTESIAN COORDINATES (A.U.)
----------------------------
  NO LB      ZA    FRAG     MASS         X           Y           Z
   0 C     6.0000    0    12.011   -8.113421    4.445896    0.089566
   1 O     8.0000    0    15.999   -4.266339    4.195104   -0.207438
   2 H     1.0000    0     1.008   -8.321588    6.417163   -0.328986
   3 H     1.0000    0     1.008   -8.308870    3.838845    2.012510
   4 H     1.0000    0     1.008   -8.556075    3.116860   -1.371481
   5 H     1.0000    0     1.008   -3.794351    5.371344    1.085174

--------------------------------
INTERNAL COORDINATES (ANGSTROEM)
--------------------------------
 C      0   0   0     0.000000000000     0.00000000     0.00000000
 O      1   0   0     2.046154028686     0.00000000     0.00000000
 H      1   2   0     1.072079109643    98.59629094     0.00000000
 H      1   2   3     1.072080073139    98.59542918   239.23612051
 H      1   2   3     1.071101798794    96.86630660   119.61825291
 H      2   1   3     0.957965625124    99.34711368    60.38116734

---------------------------
INTERNAL COORDINATES (A.U.)
---------------------------
 C      0   0   0     0.000000000000     0.00000000     0.00000000
 O      1   0   0     3.866670742035     0.00000000     0.00000000
 H      1   2   0     2.025935911123    98.59629094     0.00000000
 H      1   2   3     2.025937731867    98.59542918   239.23612051
 H      1   2   3     2.024089061271    96.86630660   119.61825291
 H      2   1   3     1.810292677195    99.34711368    60.38116734

---------------------
BASIS SET INFORMATION
---------------------
There are 3 groups of distinct atoms

 Group   1 Type C   : 10s4p1d contracted to 3s2p1d pattern {631/31/1}
 Group   2 Type O   : 10s4p1d contracted to 3s2p1d pattern {631/31/1}
 Group   3 Type H   : 4s contracted to 2s pattern {31}

Atom   0C    basis set group =>   1
Atom   1O    basis set group =>   2
Atom   2H    basis set group =>   3
Atom   3H    basis set group =>   3
Atom   4H    basis set group =>   3
Atom   5H    basis set group =>   3
------------------------------------------------------------------------------
                           ORCA GTO INTEGRAL CALCULATION
------------------------------------------------------------------------------

                         BASIS SET STATISTICS AND STARTUP INFO

 # of primitive gaussian shells          ...   46
 # of primitive gaussian functions       ...   70
 # of contracted shells                  ...   20
 # of contracted basis functions         ...   36
 Highest angular momentum                ...    2
 Maximum contraction depth               ...    6
 Integral package used                   ... LIBINT
 Integral threshhold            Thresh   ...  1.000e-10
 Primitive cut-off              TCut     ...  1.000e-11


------------------------------ INTEGRAL EVALUATION ----------------------------


 * One electron integrals 
 Pre-screening matrix                    ... done
 Shell pair data                         ... done (   0.000 sec)

-------------------------------------------------------------------------------
                                 ORCA SCF
-------------------------------------------------------------------------------

------------
SCF SETTINGS
------------
Hamiltonian:
 Density Functional     Method          .... DFT(GTOs)
 Exchange Functional    Exchange        .... WB97X-D3
 Correlation Functional Correlation     .... WB97X-D3
 Gradients option       PostSCFGGA      .... off
 Hybrid DFT is turned on
   Fraction HF Exchange ScalHFX         ....  0.195728
   Scaling of DF-GGA-X  ScalDFX         ....  0.000000
   Scaling of DF-GGA-C  ScalDFC         ....  1.000000
   Scaling of DF-LDA-C  ScalLDAC        ....  1.000000
   Perturbative correction              ....  0.000000
 Long-range corrected/Screened/Range-Separated Hybrid DFT is turned on
   Amount of maximum screened exact exchange              ....  0.804272
   Range separation parameter mu (erf(mu*r12)/r12)        ....  0.250000


General Settings:
 Integral files         IntName         .... Scan_17
 Hartree-Fock type      HFTyp           .... RHF
 Total Charge           Charge          ....    0
 Multiplicity           Mult            ....    1
 Number of Electrons    NEL             ....   18
 Basis Dimension        Dim             ....   36
 Nuclear Repulsion      ENuc            ....     33.7010434882 Eh

Convergence Acceleration:
 DIIS                   CNVDIIS         .... on
   Start iteration      DIISMaxIt       ....     0
   Startup error        DIISStart       ....  0.200000
   # of expansion vecs  DIISMaxEq       ....     5
   Bias factor          DIISBfac        ....   1.050
   Max. coefficient     DIISMaxC        ....  10.000
 Newton-Raphson         CNVNR           .... off
 SOSCF                  CNVSOSCF        .... off
 Level Shifting         CNVShift        .... off
 Zerner damping         CNVZerner       .... off
 Static damping         CNVDamp         .... off
 Fernandez-Rico         CNVRico         .... off

SCF Procedure:
 Maximum # iterations   MaxIter         ....   999
 SCF integral mode      SCFMode         .... Direct
   Integral package                     .... LIBINT
 Reset frequeny         DirectResetFreq ....    20
 Integral Threshold     Thresh          ....  1.000e-10 Eh
 Primitive CutOff       TCut            ....  1.000e-11 Eh

Convergence Tolerance:
 Convergence Check Mode ConvCheckMode   .... All-Criteria
 Convergence forced     ConvForced      .... 0
 Energy Change          TolE            ....  1.000e-06 Eh
 Max Density Change     TolMaxP         ....  1.000e-05
 RMS Density Change     TolRMSP         ....  1.000e-06
 DIIS Error             TolErr          ....  1.000e-06


Diagonalization of the overlap matrix:
Smallest eigenvalue                        ... 2.262e-02
Time for diagonalization                   ...    0.001 sec
Threshold for overlap eigenvalues          ... 1.000e-08
Number of eigenvalues below threshold      ... 0
Time for construction of square roots      ...    0.007 sec
Total time needed                          ...    0.007 sec

-------------------
DFT GRID GENERATION
-------------------

General Integration Accuracy     IntAcc      ...  4.340
Radial Grid Type                 RadialGrid  ... Gauss-Chebyshev
Angular Grid (max. acc.)         AngularGrid ... Lebedev-110
Angular grid pruning method      GridPruning ... 3 (G Style)
Weight generation scheme         WeightScheme... Becke
Basis function cutoff            BFCut       ...    1.0000e-10
Integration weight cutoff        WCut        ...    1.0000e-14
Grids for H and He will be reduced by one unit

# of grid points (after initial pruning)     ...   6548 (   0.0 sec)
# of grid points (after weights+screening)   ...   6394 (   0.0 sec)
nearest neighbour list constructed           ...    0.0 sec
Grid point re-assignment to atoms done       ...    0.0 sec
Grid point division into batches done        ...    0.0 sec
Reduced shell lists constructed in    0.0 sec

Total number of grid points                  ...     6394
Total number of batches                      ...      103
Average number of points per batch           ...       62
Average number of grid points per atom       ...     1066
Average number of shells per batch           ...    17.42 (87.12%)
Average number of basis functions per batch  ...    31.85 (88.46%)
Average number of large shells per batch     ...    15.20 (87.25%)
Average number of large basis fcns per batch ...    27.88 (87.53%)
Maximum spatial batch extension              ...  19.49, 21.59, 25.60 au
Average spatial batch extension              ...   4.77,  4.68,  4.64 au

Time for grid setup =    0.049 sec

------------------------------
INITIAL GUESS: MODEL POTENTIAL
------------------------------
Loading Hartree-Fock densities                     ... done
Calculating cut-offs                               ... done
Setting up the integral package                    ... done
Initializing the effective Hamiltonian             ... done
Starting the Coulomb interaction                   ... done (   0.0 sec)
Reading the grid                                   ... done
Mapping shells                                     ... done
Starting the XC term evaluation                    ... done (   0.0 sec)
  promolecular density results
     # of electrons  =     17.996172283
     EX              =    -14.332794072
     EC              =     -0.553282417
     EX+EC           =    -14.886076490
Transforming the Hamiltonian                       ... done (   0.0 sec)
Diagonalizing the Hamiltonian                      ... done (   0.0 sec)
Back transforming the eigenvectors                 ... done (   0.0 sec)
Now organizing SCF variables                       ... done
                      ------------------
                      INITIAL GUESS DONE (   0.2 sec)
                      ------------------
--------------
SCF ITERATIONS
--------------
ITER       Energy         Delta-E        Max-DP      RMS-DP      [F,P]   Gradient Norm
               ***  Starting incremental Fock matrix formation  ***
                             ****Resetting KDIIS****
                             ****Turning on KDIIS(Cayley)****
  0   -115.4751477078   0.000000000000 0.04266450  0.00251013  0.1237740   0.120782335
  1   -115.5176528824  -0.042505174635 0.05548063  0.00295689  0.0995202   0.092845693
  2   -115.5509081581  -0.033255275674 0.09352594  0.00651603  0.0675481   0.067687688
  3   -115.5749598365  -0.024051678475 0.04020890  0.00331325  0.0391105   0.036593506
  4   -115.5837738050  -0.008813968473 0.00879671  0.00097613  0.0161868   0.010160975
  5   -115.5847349096  -0.000961104630 0.01166910  0.00112584  0.0205050   0.007531493
  6   -115.5860996918  -0.001364782199 0.01822485  0.00173970  0.0134424   0.004617727
  7   -115.5869768876  -0.000877195716 0.00247540  0.00013549  0.0011279   0.000750059
  8   -115.5869843289  -0.000007441315 0.00026984  0.00002246  0.0001656   0.000141605
                          ***Energy convergence achieved***
  9   -115.5869845507  -0.000000221820 0.00006429  0.00000702  0.0000404   0.000049748

            ***Energy convergence in two consecutive cycles with***
                    ***'reasonable' density convergence***
                       *** signaling convergence ***

                    *** KDIIS BlockDiag ( 0.001 sec) ***

               *****************************************************
               *                     SUCCESS                       *
               *           SCF CONVERGED AFTER  10 CYCLES          *
               *****************************************************

Setting up the final grid:

General Integration Accuracy     IntAcc      ...  4.670
Radial Grid Type                 RadialGrid  ... Gauss-Chebyshev
Angular Grid (max. acc.)         AngularGrid ... Lebedev-302
Angular grid pruning method      GridPruning ... 3 (G Style)
Weight generation scheme         WeightScheme... Becke
Basis function cutoff            BFCut       ...    1.0000e-10
Integration weight cutoff        WCut        ...    1.0000e-14
Grids for H and He will be reduced by one unit

# of grid points (after initial pruning)     ...  26000 (   0.0 sec)
# of grid points (after weights+screening)   ...  25247 (   0.0 sec)
nearest neighbour list constructed           ...    0.0 sec
Grid point re-assignment to atoms done       ...    0.0 sec
Grid point division into batches done        ...    0.1 sec
Reduced shell lists constructed in    0.2 sec

Total number of grid points                  ...    25247
Total number of batches                      ...      397
Average number of points per batch           ...       63
Average number of grid points per atom       ...     4208
Average number of shells per batch           ...    15.89 (79.47%)
Average number of basis functions per batch  ...    29.14 (80.93%)
Average number of large shells per batch     ...    13.71 (86.28%)
Average number of large basis fcns per batch ...    25.19 (86.44%)
Maximum spatial batch extension              ...  19.22, 20.64, 18.20 au
Average spatial batch extension              ...   3.09,  3.03,  3.00 au

Final grid set up in    0.2 sec
Final integration                            ... done (   0.2 sec)
Change in XC energy                          ...    -0.000241321
Integrated number of electrons               ...    18.000017056
Previous integrated no of electrons          ...    17.997736844

----------------
TOTAL SCF ENERGY
----------------

Total Energy       :         -115.58722590 Eh           -3145.28832 eV

Components:
Nuclear Repulsion  :           33.70104349 Eh             917.05202 eV
Electronic Energy  :         -149.28826938 Eh           -4062.34034 eV
One Electron Energy:         -224.05770112 Eh           -6096.92001 eV
Two Electron Energy:           74.76943173 Eh            2034.57967 eV

Virial components:
Potential Energy   :         -230.25370979 Eh           -6265.52198 eV
Kinetic Energy     :          114.66648390 Eh            3120.23366 eV
Virial Ratio       :            2.00802974


DFT components:
N(Alpha)           :        9.000008528155 electrons
N(Beta)            :        9.000008528155 electrons
N(Total)           :       18.000017056309 electrons
E(XC)              :      -10.546316845507 Eh       

---------------
SCF CONVERGENCE
---------------

  Last Energy change         ...   -2.4230e-08  Tolerance :   1.0000e-06
  Last MAX-Density change    ...    1.8819e-05  Tolerance :   1.0000e-05
  Last RMS-Density change    ...    2.2831e-06  Tolerance :   1.0000e-06
  Last DIIS Error            ...    1.1197e-05  Tolerance :   1.0000e-06

             **** THE GBW FILE WAS UPDATED (Scan_17.gbw) ****
             **** DENSITY FILE WAS UPDATED (Scan_17.scfp.tmp) ****
             **** ENERGY FILE WAS UPDATED (Scan_17.en.tmp) ****
----------------
ORBITAL ENERGIES
----------------

  NO   OCC          E(Eh)            E(eV) 
   0   2.0000     -19.218546      -522.9632 
   1   2.0000     -10.353533      -281.7339 
   2   2.0000      -1.023464       -27.8499 
   3   2.0000      -0.819896       -22.3105 
   4   2.0000      -0.552646       -15.0383 
   5   2.0000      -0.551142       -14.9973 
   6   2.0000      -0.486641       -13.2422 
   7   2.0000      -0.380256       -10.3473 
   8   2.0000      -0.341054        -9.2805 
   9   0.0000       0.034933         0.9506 
  10   0.0000       0.189962         5.1691 
  11   0.0000       0.248651         6.7661 
  12   0.0000       0.256217         6.9720 
  13   0.0000       0.259475         7.0607 
  14   0.0000       0.620489        16.8844 
  15   0.0000       0.629091        17.1184 
  16   0.0000       0.641613        17.4592 
  17   0.0000       0.883507        24.0414 
  18   0.0000       0.972297        26.4576 
  19   0.0000       0.989890        26.9363 
  20   0.0000       1.008098        27.4317 
  21   0.0000       1.071699        29.1624 
  22   0.0000       1.100740        29.9527 
  23   0.0000       1.126820        30.6623 
  24   0.0000       1.259661        34.2771 
  25   0.0000       1.604427        43.6587 
  26   0.0000       1.710467        46.5442 
  27   0.0000       1.718966        46.7754 
  28   0.0000       1.880104        51.1602 
  29   0.0000       1.916041        52.1381 
  30   0.0000       1.962426        53.4003 
  31   0.0000       2.012193        54.7546 
  32   0.0000       2.305159        62.7266 
  33   0.0000       2.310277        62.8658 
  34   0.0000       2.403297        65.3970 
  35   0.0000       2.643179        71.9246 

                    ********************************
                    * MULLIKEN POPULATION ANALYSIS *
                    ********************************

-----------------------
MULLIKEN ATOMIC CHARGES
-----------------------
   0 C :   -0.377596
   1 O :   -0.671750
   2 H :    0.214036
   3 H :    0.214093
   4 H :    0.228477
   5 H :    0.392740
Sum of atomic charges:    0.0000000

--------------------------------
MULLIKEN REDUCED ORBITAL CHARGES
--------------------------------
  0 C s       :     3.398057  s :     3.398057
      pz      :     1.120598  p :     2.953451
      px      :     0.713835
      py      :     1.119018
      dz2     :     0.008106  d :     0.026088
      dxz     :     0.002004
      dyz     :     0.007351
      dx2y2   :     0.006649
      dxy     :     0.001979
  1 O s       :     3.938390  s :     3.938390
      pz      :     1.690893  p :     4.715577
      px      :     1.281714
      py      :     1.742971
      dz2     :     0.002584  d :     0.017783
      dxz     :     0.001950
      dyz     :     0.008899
      dx2y2   :     0.002733
      dxy     :     0.001616
  2 H s       :     0.785964  s :     0.785964
  3 H s       :     0.785907  s :     0.785907
  4 H s       :     0.771523  s :     0.771523
  5 H s       :     0.607260  s :     0.607260


                     *******************************
                     * LOEWDIN POPULATION ANALYSIS *
                     *******************************

----------------------
LOEWDIN ATOMIC CHARGES
----------------------
   0 C :   -0.221642
   1 O :   -0.543906
   2 H :    0.156550
   3 H :    0.156523
   4 H :    0.165290
   5 H :    0.287184

-------------------------------
LOEWDIN REDUCED ORBITAL CHARGES
-------------------------------
  0 C s       :     3.093159  s :     3.093159
      pz      :     1.171279  p :     3.084884
      px      :     0.742776
      py      :     1.170830
      dz2     :     0.013924  d :     0.043599
      dxz     :     0.002863
      dyz     :     0.013134
      dx2y2   :     0.010860
      dxy     :     0.002817
  1 O s       :     3.757381  s :     3.757381
      pz      :     1.710606  p :     4.762226
      px      :     1.292584
      py      :     1.759036
      dz2     :     0.003290  d :     0.024299
      dxz     :     0.002643
      dyz     :     0.011978
      dx2y2   :     0.004181
      dxy     :     0.002207
  2 H s       :     0.843450  s :     0.843450
  3 H s       :     0.843477  s :     0.843477
  4 H s       :     0.834710  s :     0.834710
  5 H s       :     0.712816  s :     0.712816


                      *****************************
                      * MAYER POPULATION ANALYSIS *
                      *****************************

  NA   - Mulliken gross atomic population
  ZA   - Total nuclear charge
  QA   - Mulliken gross atomic charge
  VA   - Mayer's total valence
  BVA  - Mayer's bonded valence
  FA   - Mayer's free valence

  ATOM       NA         ZA         QA         VA         BVA        FA
  0 C      6.3776     6.0000    -0.3776     3.7306     3.7306     0.0000
  1 O      8.6718     8.0000    -0.6718     1.7287     1.7287     0.0000
  2 H      0.7860     1.0000     0.2140     0.9196     0.9196    -0.0000
  3 H      0.7859     1.0000     0.2141     0.9194     0.9194     0.0000
  4 H      0.7715     1.0000     0.2285     0.9206     0.9206    -0.0000
  5 H      0.6073     1.0000     0.3927     0.8014     0.8014     0.0000

  Mayer bond orders larger than 0.1
B(  0-C ,  1-O ) :   0.9318 B(  0-C ,  2-H ) :   0.9322 B(  0-C ,  3-H ) :   0.9320 
B(  0-C ,  4-H ) :   0.9341 B(  1-O ,  5-H ) :   0.8013 

-------
TIMINGS
-------

Total SCF time: 0 days 0 hours 0 min 4 sec 

Total time                  ....       4.107 sec
Sum of individual times     ....       3.960 sec  ( 96.4%)

Fock matrix formation       ....       3.514 sec  ( 85.6%)
  XC integration            ....       1.095 sec  ( 31.2% of F)
    Basis function eval.    ....       0.426 sec  ( 38.9% of XC)
    Density eval.           ....       0.054 sec  (  4.9% of XC)
    XC-Functional eval.     ....       0.290 sec  ( 26.5% of XC)
    XC-Potential eval.      ....       0.053 sec  (  4.8% of XC)
Diagonalization             ....       0.007 sec  (  0.2%)
Density matrix formation    ....       0.000 sec  (  0.0%)
Population analysis         ....       0.009 sec  (  0.2%)
Initial guess               ....       0.148 sec  (  3.6%)
Orbital Transformation      ....       0.000 sec  (  0.0%)
Orbital Orthonormalization  ....       0.000 sec  (  0.0%)
DIIS solution               ....       0.000 sec  (  0.0%)
Grid generation             ....       0.282 sec  (  6.9%)


-------------------------------------------------------------------------------
                          DFT DISPERSION CORRECTION                            
                                                                               
                              DFTD3 V3.1  Rev 1                                
                              USING zero damping                               
-------------------------------------------------------------------------------
The omegaB97X-D3 functional is recognized. Fit by Chai et al.
Active option DFTDOPT                   ...         3   

molecular C6(AA) [au] = 241.545688 


            DFT-D V3
 parameters
 s6 scaling factor         :     1.0000 
 rs6 scaling factor        :     1.2810 
 s8 scaling factor         :     1.0000 
 rs8 scaling factor        :     1.0940 
 Damping factor alpha6     :    14.0000 
 Damping factor alpha8     :    16.0000 
 ad hoc parameters k1-k3   :    16.0000     1.3333    -4.0000 

 Edisp/kcal,au: -0.339909485565  -0.000541680187 
 E6   /kcal   :  -0.068448738 
 E8   /kcal   :  -0.271460747 
 % E8         :  79.862657247 

-------------------------   ----------------
Dispersion correction           -0.000541680
-------------------------   ----------------


-------------------------   --------------------
FINAL SINGLE POINT ENERGY      -115.587767576394
-------------------------   --------------------


                            ***************************************
                            *     ORCA property calculations      *
                            ***************************************

                                    ---------------------
                                    Active property flags
                                    ---------------------
   (+) Dipole Moment


------------------------------------------------------------------------------
                       ORCA ELECTRIC PROPERTIES CALCULATION
------------------------------------------------------------------------------

Dipole Moment Calculation                       ... on
Quadrupole Moment Calculation                   ... off
Polarizability Calculation                      ... off
GBWName                                         ... Scan_17.gbw
Electron density file                           ... Scan_17.scfp.tmp

-------------
DIPOLE MOMENT
-------------
                                X             Y             Z
Electronic contribution:      1.30663      -0.20613      -0.23485
Nuclear contribution   :     -2.29323       0.66436       0.74397
                        -----------------------------------------
Total Dipole Moment    :     -0.98660       0.45823       0.50912
                        -----------------------------------------
Magnitude (a.u.)       :      1.20107
Magnitude (Debye)      :      3.05287


Timings for individual modules:

Sum of individual times         ...        4.463 sec (=   0.074 min)
GTO integral calculation        ...        0.319 sec (=   0.005 min)   7.1 %
SCF iterations                  ...        4.144 sec (=   0.069 min)  92.9 %
                             ****ORCA TERMINATED NORMALLY****
TOTAL RUN TIME: 0 days 0 hours 0 minutes 4 seconds 795 msec
