
                                 *****************
                                 * O   R   C   A *
                                 *****************

           --- An Ab Initio, DFT and Semiempirical electronic structure package ---

                  #######################################################
                  #                        -***-                        #
                  #  Department of molecular theory and spectroscopy    #
                  #              Directorship: Frank Neese              #
                  # Max Planck Institute for Chemical Energy Conversion #
                  #                  D-45470 Muelheim/Ruhr              #
                  #                       Germany                       #
                  #                                                     #
                  #                  All rights reserved                #
                  #                        -***-                        #
                  #######################################################


                         Program Version 4.0.0.2 - RELEASE -


 With contributions from (in alphabetic order):
   Daniel Aravena         : Magnetic Properties
   Michael Atanasov       : Ab Initio Ligand Field Theory
   Ute Becker             : Parallelization
   Martin Brehm           : Molecular dynamics
   Dmytro Bykov           : SCF Hessian
   Vijay G. Chilkuri      : MRCI spin determinant printing
   Dipayan Datta          : RHF DLPNO-CCSD density
   Achintya Kumar Dutta   : EOM-CC, STEOM-CC
   Dmitry Ganyushin       : Spin-Orbit,Spin-Spin,Magnetic field MRCI
   Yang Guo               : DLPNO-NEVPT2, CIM, IAO-localization
   Andreas Hansen         : Spin unrestricted coupled pair/coupled cluster methods
   Lee Huntington         : MR-EOM, pCC
   Robert Izsak           : Overlap fitted RIJCOSX, COSX-SCS-MP3, EOM
   Christian Kollmar      : KDIIS, OOCD, Brueckner-CCSD(T), CCSD density
   Simone Kossmann        : Meta GGA functionals, TD-DFT gradient, OOMP2, MP2 Hessian
   Martin Krupicka        : AUTO-CI
   Dagmar Lenk            : GEPOL surface
   Dimitrios Liakos       : Extrapolation schemes; parallel MDCI
   Dimitrios Manganas     : ROCIS; embedding schemes
   Dimitrios Pantazis     : SARC Basis sets
   Taras Petrenko         : DFT Hessian,TD-DFT gradient, ASA, ECA, R-Raman, ABS, FL, XAS/XES, NRVS
   Peter Pinski           : DLPNO-MP2
   Christoph Reimann      : Effective Core Potentials
   Marius Retegan         : Local ZFS, SOC
   Christoph Riplinger    : Optimizer, TS searches, QM/MM, DLPNO-CCSD(T), (RO)-DLPNO pert. Triples
   Tobias Risthaus        : Range-separated hybrids, TD-DFT gradient, RPA, STAB
   Michael Roemelt        : Restricted open shell CIS
   Masaaki Saitow         : Open-shell DLPNO
   Barbara Sandhoefer     : DKH picture change effects
   Kantharuban Sivalingam : CASSCF convergence, NEVPT2, FIC-MRCI
   Georgi Stoychev        : AutoAux
   Boris Wezisla          : Elementary symmetry handling
   Frank Wennmohs         : Technical directorship


 We gratefully acknowledge several colleagues who have allowed us to
 interface, adapt or use parts of their codes:
   Stefan Grimme, W. Hujo, H. Kruse,             : VdW corrections, initial TS optimization,
                  C. Bannwarth                     DFT functionals, gCP, sTDA/sTD-DF
   Ed Valeev                                     : LibInt (2-el integral package), F12 methods
   Garnet Chan, S. Sharma, J. Yang, R. Olivares  : DMRG
   Ulf Ekstrom                                   : XCFun DFT Library
   Mihaly Kallay                                 : mrcc  (arbitrary order and MRCC methods)
   Jiri Pittner, Ondrej Demel                    : Mk-CCSD
   Frank Weinhold                                : gennbo (NPA and NBO analysis)
   Christopher J. Cramer and Donald G. Truhlar   : smd solvation model


 Your calculation uses the libint2 library for the computation of 2-el integrals
 For citations please refer to: http://libint.valeyev.net

 This ORCA versions uses:
   CBLAS   interface :  Fast vector & matrix operations
   LAPACKE interface :  Fast linear algebra routines
   SCALAPACK package :  Parallel linear algebra routines


Your calculation utilizes the atom-pairwise dispersion correction
with the zero-damping scheme (D30)
Cite in your paper:
S.Grimme, J.Antony, S.Ehrlich and H.Krieg, J.Chem.Phys., 132, (2010), 154104 
   

XCFun DFT library Copyright 2009-2010 Ulf Ekstrom and contributors.
See http://admol.org/xcfun for more information. This is free soft-
ware; see the source code for copying conditions. There is ABSOLUTELY
NO WARRANTY; not even for MERCHANTABILITY or FITNESS FOR A PARTICULAR
PURPOSE. For details see the documentation. Scientific users of this 
library should cite U. Ekstrom, L. Visscher, R. Bast, A. J. Thorvald-
sen and K. Ruud; J.Chem.Theor.Comp. 2010, DOI: 10.1021/ct100117s
XCFun Version 0.99 
Your calculation utilizes the basis: 6-31G(d)
   H-He, Li-Ne : W. J. Hehre, R. Ditchfield and J.A. Pople, J. Chem. Phys. 56, 2257 (1972).
                 Note: He and Ne are unpublished basis sets taken from the Gaussian program.
                 Note: Li and B from J. D. Dill and J. A. Pople, J. Chem. Phys. 62, 2921 (1975).
   Na - Ar     : M. M. Francl, W. J. Pietro, W. J. Hehre, J. S. Binkley, M. S. Gordon, 
                 D. J. DeFrees and J. A. Pople, J. Chem. Phys. 77, 3654 (1982).
   K - Zn      : V. A. Rassolov, J. A. Pople, M. A. Ratner, and T. L. Windus, J. Chem. Phys. 109, 1223 (1998).

================================================================================
                                        WARNINGS
                       Please study these warnings very carefully!
================================================================================

Warning: TCutStore was < 0. Adjusted to Thresh (uncritical)

INFO   : the flag for use of LIBINT has been found!

================================================================================
                                       INPUT FILE
================================================================================
NAME = initial18.inp
|  1> ! WB97X-D3 6-31G(d) VerySlowConv
|  2> ! KDIIS NOSOSCF
|  3> %base "Scan_18"
|  4> 
|  5> %scf
|  6> maxiter 999
|  7> end
|  8> 
|  9> * xyz 0 1
| 10> C         -4.347956953837    2.353411743743    0.048514556188
| 11> O         -2.196501929254    2.220774402275   -0.109205394815
| 12> H         -4.424113243555    3.397789134231   -0.176250089726
| 13> H         -4.417366059714    2.028981675246    1.066832515765
| 14> H         -4.541175978632    1.645086434001   -0.730401023320
| 15> H         -1.959995835009    2.845586610504    0.577509435909
| 16> **                         ****END OF INPUT****
================================================================================

                       ****************************
                       * Single Point Calculation *
                       ****************************

---------------------------------
CARTESIAN COORDINATES (ANGSTROEM)
---------------------------------
  C     -4.347957    2.353412    0.048515
  O     -2.196502    2.220774   -0.109205
  H     -4.424113    3.397789   -0.176250
  H     -4.417366    2.028982    1.066833
  H     -4.541176    1.645086   -0.730401
  H     -1.959996    2.845587    0.577509

----------------------------
CARTESIAN COORDINATES (A.U.)
----------------------------
  NO LB      ZA    FRAG     MASS         X           Y           Z
   0 C     6.0000    0    12.011   -8.216448    4.447304    0.091679
   1 O     8.0000    0    15.999   -4.150787    4.196655   -0.206368
   2 H     1.0000    0     1.008   -8.360362    6.420891   -0.333064
   3 H     1.0000    0     1.008   -8.347612    3.834220    2.016021
   4 H     1.0000    0     1.008   -8.581579    3.108763   -1.380258
   5 H     1.0000    0     1.008   -3.703855    5.377379    1.091335

--------------------------------
INTERNAL COORDINATES (ANGSTROEM)
--------------------------------
 C      0   0   0     0.000000000000     0.00000000     0.00000000
 O      1   0   0     2.161302146878     0.00000000     0.00000000
 H      1   2   0     1.071000961848    96.62165050     0.00000000
 H      1   2   3     1.071001381942    96.62134096   239.30903884
 H      1   2   3     1.070405444663    94.93210796   119.65457671
 H      2   1   3     0.958072380827    98.82421645    60.34515506

---------------------------
INTERNAL COORDINATES (A.U.)
---------------------------
 C      0   0   0     0.000000000000     0.00000000     0.00000000
 O      1   0   0     4.084269150255     0.00000000     0.00000000
 H      1   2   0     2.023898507059    96.62165050     0.00000000
 H      1   2   3     2.023899300921    96.62134096   239.30903884
 H      1   2   3     2.022773142671    94.93210796   119.65457671
 H      2   1   3     1.810494416237    98.82421645    60.34515506

---------------------
BASIS SET INFORMATION
---------------------
There are 3 groups of distinct atoms

 Group   1 Type C   : 10s4p1d contracted to 3s2p1d pattern {631/31/1}
 Group   2 Type O   : 10s4p1d contracted to 3s2p1d pattern {631/31/1}
 Group   3 Type H   : 4s contracted to 2s pattern {31}

Atom   0C    basis set group =>   1
Atom   1O    basis set group =>   2
Atom   2H    basis set group =>   3
Atom   3H    basis set group =>   3
Atom   4H    basis set group =>   3
Atom   5H    basis set group =>   3
------------------------------------------------------------------------------
                           ORCA GTO INTEGRAL CALCULATION
------------------------------------------------------------------------------

                         BASIS SET STATISTICS AND STARTUP INFO

 # of primitive gaussian shells          ...   46
 # of primitive gaussian functions       ...   70
 # of contracted shells                  ...   20
 # of contracted basis functions         ...   36
 Highest angular momentum                ...    2
 Maximum contraction depth               ...    6
 Integral package used                   ... LIBINT
 Integral threshhold            Thresh   ...  1.000e-10
 Primitive cut-off              TCut     ...  1.000e-11


------------------------------ INTEGRAL EVALUATION ----------------------------


 * One electron integrals 
 Pre-screening matrix                    ... done
 Shell pair data                         ... done (   0.000 sec)

-------------------------------------------------------------------------------
                                 ORCA SCF
-------------------------------------------------------------------------------

------------
SCF SETTINGS
------------
Hamiltonian:
 Density Functional     Method          .... DFT(GTOs)
 Exchange Functional    Exchange        .... WB97X-D3
 Correlation Functional Correlation     .... WB97X-D3
 Gradients option       PostSCFGGA      .... off
 Hybrid DFT is turned on
   Fraction HF Exchange ScalHFX         ....  0.195728
   Scaling of DF-GGA-X  ScalDFX         ....  0.000000
   Scaling of DF-GGA-C  ScalDFC         ....  1.000000
   Scaling of DF-LDA-C  ScalLDAC        ....  1.000000
   Perturbative correction              ....  0.000000
 Long-range corrected/Screened/Range-Separated Hybrid DFT is turned on
   Amount of maximum screened exact exchange              ....  0.804272
   Range separation parameter mu (erf(mu*r12)/r12)        ....  0.250000


General Settings:
 Integral files         IntName         .... Scan_18
 Hartree-Fock type      HFTyp           .... RHF
 Total Charge           Charge          ....    0
 Multiplicity           Mult            ....    1
 Number of Electrons    NEL             ....   18
 Basis Dimension        Dim             ....   36
 Nuclear Repulsion      ENuc            ....     32.8279548039 Eh

Convergence Acceleration:
 DIIS                   CNVDIIS         .... on
   Start iteration      DIISMaxIt       ....     0
   Startup error        DIISStart       ....  0.200000
   # of expansion vecs  DIISMaxEq       ....     5
   Bias factor          DIISBfac        ....   1.050
   Max. coefficient     DIISMaxC        ....  10.000
 Newton-Raphson         CNVNR           .... off
 SOSCF                  CNVSOSCF        .... off
 Level Shifting         CNVShift        .... off
 Zerner damping         CNVZerner       .... off
 Static damping         CNVDamp         .... off
 Fernandez-Rico         CNVRico         .... off

SCF Procedure:
 Maximum # iterations   MaxIter         ....   999
 SCF integral mode      SCFMode         .... Direct
   Integral package                     .... LIBINT
 Reset frequeny         DirectResetFreq ....    20
 Integral Threshold     Thresh          ....  1.000e-10 Eh
 Primitive CutOff       TCut            ....  1.000e-11 Eh

Convergence Tolerance:
 Convergence Check Mode ConvCheckMode   .... All-Criteria
 Convergence forced     ConvForced      .... 0
 Energy Change          TolE            ....  1.000e-06 Eh
 Max Density Change     TolMaxP         ....  1.000e-05
 RMS Density Change     TolRMSP         ....  1.000e-06
 DIIS Error             TolErr          ....  1.000e-06


Diagonalization of the overlap matrix:
Smallest eigenvalue                        ... 2.400e-02
Time for diagonalization                   ...    0.001 sec
Threshold for overlap eigenvalues          ... 1.000e-08
Number of eigenvalues below threshold      ... 0
Time for construction of square roots      ...    0.004 sec
Total time needed                          ...    0.005 sec

-------------------
DFT GRID GENERATION
-------------------

General Integration Accuracy     IntAcc      ...  4.340
Radial Grid Type                 RadialGrid  ... Gauss-Chebyshev
Angular Grid (max. acc.)         AngularGrid ... Lebedev-110
Angular grid pruning method      GridPruning ... 3 (G Style)
Weight generation scheme         WeightScheme... Becke
Basis function cutoff            BFCut       ...    1.0000e-10
Integration weight cutoff        WCut        ...    1.0000e-14
Grids for H and He will be reduced by one unit

# of grid points (after initial pruning)     ...   6548 (   0.0 sec)
# of grid points (after weights+screening)   ...   6400 (   0.0 sec)
nearest neighbour list constructed           ...    0.0 sec
Grid point re-assignment to atoms done       ...    0.0 sec
Grid point division into batches done        ...    0.0 sec
Reduced shell lists constructed in    0.0 sec

Total number of grid points                  ...     6400
Total number of batches                      ...      102
Average number of points per batch           ...       62
Average number of grid points per atom       ...     1067
Average number of shells per batch           ...    17.38 (86.89%)
Average number of basis functions per batch  ...    31.77 (88.24%)
Average number of large shells per batch     ...    14.97 (86.15%)
Average number of large basis fcns per batch ...    27.24 (85.76%)
Maximum spatial batch extension              ...  19.49, 21.59, 25.60 au
Average spatial batch extension              ...   4.79,  4.83,  4.69 au

Time for grid setup =    0.047 sec

------------------------------
INITIAL GUESS: MODEL POTENTIAL
------------------------------
Loading Hartree-Fock densities                     ... done
Calculating cut-offs                               ... done
Setting up the integral package                    ... done
Initializing the effective Hamiltonian             ... done
Starting the Coulomb interaction                   ... done (   0.0 sec)
Reading the grid                                   ... done
Mapping shells                                     ... done
Starting the XC term evaluation                    ... done (   0.0 sec)
  promolecular density results
     # of electrons  =     17.996825333
     EX              =    -14.326202157
     EC              =     -0.550725357
     EX+EC           =    -14.876927513
Transforming the Hamiltonian                       ... done (   0.0 sec)
Diagonalizing the Hamiltonian                      ... done (   0.0 sec)
Back transforming the eigenvectors                 ... done (   0.0 sec)
Now organizing SCF variables                       ... done
                      ------------------
                      INITIAL GUESS DONE (   0.2 sec)
                      ------------------
--------------
SCF ITERATIONS
--------------
ITER       Energy         Delta-E        Max-DP      RMS-DP      [F,P]   Gradient Norm
               ***  Starting incremental Fock matrix formation  ***
                             ****Resetting KDIIS****
                             ****Turning on KDIIS(Cayley)****
  0   -115.4341955898   0.000000000000 0.04566483  0.00269597  0.1407009   0.130191009
  1   -115.4834279802  -0.049232390405 0.05579187  0.00288630  0.1166887   0.100209274
  2   -115.5220786835  -0.038650703240 0.11780548  0.00637289  0.0856329   0.074228396
  3   -115.5603520531  -0.038273369613 0.04976008  0.00403279  0.0275705   0.030348699
  4   -115.5661268375  -0.005774784389 0.01855758  0.00114222  0.0098621   0.010417909
  5   -115.5670674722  -0.000940634712 0.00514475  0.00052835  0.0148488   0.005799612
  6   -115.5675324166  -0.000464944399 0.02048019  0.00183415  0.0127271   0.004418648
  7   -115.5683145829  -0.000782166323 0.00298663  0.00028656  0.0014909   0.001476665
  8   -115.5683382363  -0.000023653392 0.00021350  0.00002628  0.0001473   0.000139901
                          ***Energy convergence achieved***
  9   -115.5683385857  -0.000000349426 0.00010889  0.00001505  0.0000659   0.000042155

            ***Energy convergence in two consecutive cycles with***
                    ***'reasonable' density convergence***
                       *** signaling convergence ***

                    *** KDIIS BlockDiag ( 0.000 sec) ***

               *****************************************************
               *                     SUCCESS                       *
               *           SCF CONVERGED AFTER  10 CYCLES          *
               *****************************************************

Setting up the final grid:

General Integration Accuracy     IntAcc      ...  4.670
Radial Grid Type                 RadialGrid  ... Gauss-Chebyshev
Angular Grid (max. acc.)         AngularGrid ... Lebedev-302
Angular grid pruning method      GridPruning ... 3 (G Style)
Weight generation scheme         WeightScheme... Becke
Basis function cutoff            BFCut       ...    1.0000e-10
Integration weight cutoff        WCut        ...    1.0000e-14
Grids for H and He will be reduced by one unit

# of grid points (after initial pruning)     ...  26000 (   0.0 sec)
# of grid points (after weights+screening)   ...  25268 (   0.0 sec)
nearest neighbour list constructed           ...    0.0 sec
Grid point re-assignment to atoms done       ...    0.0 sec
Grid point division into batches done        ...    0.1 sec
Reduced shell lists constructed in    0.2 sec

Total number of grid points                  ...    25268
Total number of batches                      ...      397
Average number of points per batch           ...       63
Average number of grid points per atom       ...     4211
Average number of shells per batch           ...    15.78 (78.92%)
Average number of basis functions per batch  ...    28.91 (80.30%)
Average number of large shells per batch     ...    13.47 (85.34%)
Average number of large basis fcns per batch ...    24.64 (85.23%)
Maximum spatial batch extension              ...  19.22, 20.64, 18.20 au
Average spatial batch extension              ...   3.08,  3.07,  3.04 au

Final grid set up in    0.2 sec
Final integration                            ... done (   0.2 sec)
Change in XC energy                          ...    -0.000259153
Integrated number of electrons               ...    18.000014492
Previous integrated no of electrons          ...    17.998105836

----------------
TOTAL SCF ENERGY
----------------

Total Energy       :         -115.56859780 Eh           -3144.78142 eV

Components:
Nuclear Repulsion  :           32.82795480 Eh             893.29406 eV
Electronic Energy  :         -148.39655261 Eh           -4038.07549 eV
One Electron Energy:         -222.30983425 Eh           -6049.35813 eV
Two Electron Energy:           73.91328164 Eh            2011.28265 eV

Virial components:
Potential Energy   :         -230.22929224 Eh           -6264.85754 eV
Kinetic Energy     :          114.66069444 Eh            3120.07612 eV
Virial Ratio       :            2.00791817


DFT components:
N(Alpha)           :        9.000007246039 electrons
N(Beta)            :        9.000007246039 electrons
N(Total)           :       18.000014492078 electrons
E(XC)              :      -10.537640400976 Eh       

---------------
SCF CONVERGENCE
---------------

  Last Energy change         ...   -6.4684e-08  Tolerance :   1.0000e-06
  Last MAX-Density change    ...    4.0275e-05  Tolerance :   1.0000e-05
  Last RMS-Density change    ...    3.8212e-06  Tolerance :   1.0000e-06
  Last DIIS Error            ...    2.3691e-05  Tolerance :   1.0000e-06

             **** THE GBW FILE WAS UPDATED (Scan_18.gbw) ****
             **** DENSITY FILE WAS UPDATED (Scan_18.scfp.tmp) ****
             **** ENERGY FILE WAS UPDATED (Scan_18.en.tmp) ****
----------------
ORBITAL ENERGIES
----------------

  NO   OCC          E(Eh)            E(eV) 
   0   2.0000     -19.214759      -522.8602 
   1   2.0000     -10.359089      -281.8851 
   2   2.0000      -1.015930       -27.6449 
   3   2.0000      -0.824333       -22.4312 
   4   2.0000      -0.556240       -15.1361 
   5   2.0000      -0.555888       -15.1265 
   6   2.0000      -0.482033       -13.1168 
   7   2.0000      -0.366885        -9.9834 
   8   2.0000      -0.336803        -9.1649 
   9   0.0000       0.011722         0.3190 
  10   0.0000       0.188671         5.1340 
  11   0.0000       0.247946         6.7470 
  12   0.0000       0.254291         6.9196 
  13   0.0000       0.257931         7.0186 
  14   0.0000       0.614967        16.7341 
  15   0.0000       0.622613        16.9422 
  16   0.0000       0.647518        17.6199 
  17   0.0000       0.853342        23.2206 
  18   0.0000       0.974978        26.5305 
  19   0.0000       0.989747        26.9324 
  20   0.0000       1.007495        27.4153 
  21   0.0000       1.070665        29.1343 
  22   0.0000       1.099245        29.9120 
  23   0.0000       1.104169        30.0460 
  24   0.0000       1.263920        34.3930 
  25   0.0000       1.597628        43.4737 
  26   0.0000       1.720285        46.8113 
  27   0.0000       1.725398        46.9505 
  28   0.0000       1.920551        52.2609 
  29   0.0000       1.929151        52.4949 
  30   0.0000       1.944307        52.9073 
  31   0.0000       1.989265        54.1307 
  32   0.0000       2.293868        62.4193 
  33   0.0000       2.295775        62.4712 
  34   0.0000       2.300459        62.5987 
  35   0.0000       2.640863        71.8615 

                    ********************************
                    * MULLIKEN POPULATION ANALYSIS *
                    ********************************

-----------------------
MULLIKEN ATOMIC CHARGES
-----------------------
   0 C :   -0.393843
   1 O :   -0.671466
   2 H :    0.220635
   3 H :    0.220709
   4 H :    0.234637
   5 H :    0.389327
Sum of atomic charges:    0.0000000

--------------------------------
MULLIKEN REDUCED ORBITAL CHARGES
--------------------------------
  0 C s       :     3.408441  s :     3.408441
      pz      :     1.124536  p :     2.960783
      px      :     0.713227
      py      :     1.123020
      dz2     :     0.008007  d :     0.024619
      dxz     :     0.001308
      dyz     :     0.007651
      dx2y2   :     0.006372
      dxy     :     0.001280
  1 O s       :     3.942346  s :     3.942346
      pz      :     1.687796  p :     4.712069
      px      :     1.283409
      py      :     1.740863
      dz2     :     0.002489  d :     0.017051
      dxz     :     0.001758
      dyz     :     0.008944
      dx2y2   :     0.002410
      dxy     :     0.001450
  2 H s       :     0.779365  s :     0.779365
  3 H s       :     0.779291  s :     0.779291
  4 H s       :     0.765363  s :     0.765363
  5 H s       :     0.610673  s :     0.610673


                     *******************************
                     * LOEWDIN POPULATION ANALYSIS *
                     *******************************

----------------------
LOEWDIN ATOMIC CHARGES
----------------------
   0 C :   -0.224899
   1 O :   -0.550286
   2 H :    0.160982
   3 H :    0.161003
   4 H :    0.169166
   5 H :    0.284034

-------------------------------
LOEWDIN REDUCED ORBITAL CHARGES
-------------------------------
  0 C s       :     3.103926  s :     3.103926
      pz      :     1.173782  p :     3.080490
      px      :     0.733391
      py      :     1.173317
      dz2     :     0.013545  d :     0.040483
      dxz     :     0.001774
      dyz     :     0.013582
      dx2y2   :     0.009852
      dxy     :     0.001729
  1 O s       :     3.770555  s :     3.770555
      pz      :     1.708497  p :     4.756591
      px      :     1.290291
      py      :     1.757802
      dz2     :     0.003131  d :     0.023140
      dxz     :     0.002322
      dyz     :     0.012111
      dx2y2   :     0.003650
      dxy     :     0.001926
  2 H s       :     0.839018  s :     0.839018
  3 H s       :     0.838997  s :     0.838997
  4 H s       :     0.830834  s :     0.830834
  5 H s       :     0.715966  s :     0.715966


                      *****************************
                      * MAYER POPULATION ANALYSIS *
                      *****************************

  NA   - Mulliken gross atomic population
  ZA   - Total nuclear charge
  QA   - Mulliken gross atomic charge
  VA   - Mayer's total valence
  BVA  - Mayer's bonded valence
  FA   - Mayer's free valence

  ATOM       NA         ZA         QA         VA         BVA        FA
  0 C      6.3938     6.0000    -0.3938     3.7199     3.7199     0.0000
  1 O      8.6715     8.0000    -0.6715     1.7296     1.7296    -0.0000
  2 H      0.7794     1.0000     0.2206     0.9192     0.9192     0.0000
  3 H      0.7793     1.0000     0.2207     0.9190     0.9190     0.0000
  4 H      0.7654     1.0000     0.2346     0.9190     0.9190     0.0000
  5 H      0.6107     1.0000     0.3893     0.8045     0.8045    -0.0000

  Mayer bond orders larger than 0.1
B(  0-C ,  1-O ) :   0.9282 B(  0-C ,  2-H ) :   0.9303 B(  0-C ,  3-H ) :   0.9301 
B(  0-C ,  4-H ) :   0.9310 B(  1-O ,  5-H ) :   0.8044 

-------
TIMINGS
-------

Total SCF time: 0 days 0 hours 0 min 3 sec 

Total time                  ....       3.968 sec
Sum of individual times     ....       3.829 sec  ( 96.5%)

Fock matrix formation       ....       3.386 sec  ( 85.3%)
  XC integration            ....       1.064 sec  ( 31.4% of F)
    Basis function eval.    ....       0.403 sec  ( 37.9% of XC)
    Density eval.           ....       0.053 sec  (  4.9% of XC)
    XC-Functional eval.     ....       0.285 sec  ( 26.8% of XC)
    XC-Potential eval.      ....       0.052 sec  (  4.9% of XC)
Diagonalization             ....       0.017 sec  (  0.4%)
Density matrix formation    ....       0.000 sec  (  0.0%)
Population analysis         ....       0.012 sec  (  0.3%)
Initial guess               ....       0.141 sec  (  3.6%)
Orbital Transformation      ....       0.000 sec  (  0.0%)
Orbital Orthonormalization  ....       0.000 sec  (  0.0%)
DIIS solution               ....       0.000 sec  (  0.0%)
Grid generation             ....       0.272 sec  (  6.9%)


-------------------------------------------------------------------------------
                          DFT DISPERSION CORRECTION                            
                                                                               
                              DFTD3 V3.1  Rev 1                                
                              USING zero damping                               
-------------------------------------------------------------------------------
The omegaB97X-D3 functional is recognized. Fit by Chai et al.
Active option DFTDOPT                   ...         3   

molecular C6(AA) [au] = 242.783608 


            DFT-D V3
 parameters
 s6 scaling factor         :     1.0000 
 rs6 scaling factor        :     1.2810 
 s8 scaling factor         :     1.0000 
 rs8 scaling factor        :     1.0940 
 Damping factor alpha6     :    14.0000 
 Damping factor alpha8     :    16.0000 
 ad hoc parameters k1-k3   :    16.0000     1.3333    -4.0000 

 Edisp/kcal,au: -0.385110069113  -0.000613711894 
 E6   /kcal   :  -0.080988036 
 E8   /kcal   :  -0.304122033 
 % E8         :  78.970158799 

-------------------------   ----------------
Dispersion correction           -0.000613712
-------------------------   ----------------


-------------------------   --------------------
FINAL SINGLE POINT ENERGY      -115.569211514936
-------------------------   --------------------


                            ***************************************
                            *     ORCA property calculations      *
                            ***************************************

                                    ---------------------
                                    Active property flags
                                    ---------------------
   (+) Dipole Moment


------------------------------------------------------------------------------
                       ORCA ELECTRIC PROPERTIES CALCULATION
------------------------------------------------------------------------------

Dipole Moment Calculation                       ... on
Quadrupole Moment Calculation                   ... off
Polarizability Calculation                      ... off
GBWName                                         ... Scan_18.gbw
Electron density file                           ... Scan_18.scfp.tmp

-------------
DIPOLE MOMENT
-------------
                                X             Y             Z
Electronic contribution:      1.25709      -0.19954      -0.22718
Nuclear contribution   :     -2.33579       0.66049       0.73996
                        -----------------------------------------
Total Dipole Moment    :     -1.07870       0.46095       0.51278
                        -----------------------------------------
Magnitude (a.u.)       :      1.28024
Magnitude (Debye)      :      3.25412


Timings for individual modules:

Sum of individual times         ...        4.306 sec (=   0.072 min)
GTO integral calculation        ...        0.302 sec (=   0.005 min)   7.0 %
SCF iterations                  ...        4.004 sec (=   0.067 min)  93.0 %
                             ****ORCA TERMINATED NORMALLY****
TOTAL RUN TIME: 0 days 0 hours 0 minutes 4 seconds 632 msec
