
                                 *****************
                                 * O   R   C   A *
                                 *****************

           --- An Ab Initio, DFT and Semiempirical electronic structure package ---

                  #######################################################
                  #                        -***-                        #
                  #  Department of molecular theory and spectroscopy    #
                  #              Directorship: Frank Neese              #
                  # Max Planck Institute for Chemical Energy Conversion #
                  #                  D-45470 Muelheim/Ruhr              #
                  #                       Germany                       #
                  #                                                     #
                  #                  All rights reserved                #
                  #                        -***-                        #
                  #######################################################


                         Program Version 4.0.0.2 - RELEASE -


 With contributions from (in alphabetic order):
   Daniel Aravena         : Magnetic Properties
   Michael Atanasov       : Ab Initio Ligand Field Theory
   Ute Becker             : Parallelization
   Martin Brehm           : Molecular dynamics
   Dmytro Bykov           : SCF Hessian
   Vijay G. Chilkuri      : MRCI spin determinant printing
   Dipayan Datta          : RHF DLPNO-CCSD density
   Achintya Kumar Dutta   : EOM-CC, STEOM-CC
   Dmitry Ganyushin       : Spin-Orbit,Spin-Spin,Magnetic field MRCI
   Yang Guo               : DLPNO-NEVPT2, CIM, IAO-localization
   Andreas Hansen         : Spin unrestricted coupled pair/coupled cluster methods
   Lee Huntington         : MR-EOM, pCC
   Robert Izsak           : Overlap fitted RIJCOSX, COSX-SCS-MP3, EOM
   Christian Kollmar      : KDIIS, OOCD, Brueckner-CCSD(T), CCSD density
   Simone Kossmann        : Meta GGA functionals, TD-DFT gradient, OOMP2, MP2 Hessian
   Martin Krupicka        : AUTO-CI
   Dagmar Lenk            : GEPOL surface
   Dimitrios Liakos       : Extrapolation schemes; parallel MDCI
   Dimitrios Manganas     : ROCIS; embedding schemes
   Dimitrios Pantazis     : SARC Basis sets
   Taras Petrenko         : DFT Hessian,TD-DFT gradient, ASA, ECA, R-Raman, ABS, FL, XAS/XES, NRVS
   Peter Pinski           : DLPNO-MP2
   Christoph Reimann      : Effective Core Potentials
   Marius Retegan         : Local ZFS, SOC
   Christoph Riplinger    : Optimizer, TS searches, QM/MM, DLPNO-CCSD(T), (RO)-DLPNO pert. Triples
   Tobias Risthaus        : Range-separated hybrids, TD-DFT gradient, RPA, STAB
   Michael Roemelt        : Restricted open shell CIS
   Masaaki Saitow         : Open-shell DLPNO
   Barbara Sandhoefer     : DKH picture change effects
   Kantharuban Sivalingam : CASSCF convergence, NEVPT2, FIC-MRCI
   Georgi Stoychev        : AutoAux
   Boris Wezisla          : Elementary symmetry handling
   Frank Wennmohs         : Technical directorship


 We gratefully acknowledge several colleagues who have allowed us to
 interface, adapt or use parts of their codes:
   Stefan Grimme, W. Hujo, H. Kruse,             : VdW corrections, initial TS optimization,
                  C. Bannwarth                     DFT functionals, gCP, sTDA/sTD-DF
   Ed Valeev                                     : LibInt (2-el integral package), F12 methods
   Garnet Chan, S. Sharma, J. Yang, R. Olivares  : DMRG
   Ulf Ekstrom                                   : XCFun DFT Library
   Mihaly Kallay                                 : mrcc  (arbitrary order and MRCC methods)
   Jiri Pittner, Ondrej Demel                    : Mk-CCSD
   Frank Weinhold                                : gennbo (NPA and NBO analysis)
   Christopher J. Cramer and Donald G. Truhlar   : smd solvation model


 Your calculation uses the libint2 library for the computation of 2-el integrals
 For citations please refer to: http://libint.valeyev.net

 This ORCA versions uses:
   CBLAS   interface :  Fast vector & matrix operations
   LAPACKE interface :  Fast linear algebra routines
   SCALAPACK package :  Parallel linear algebra routines


Your calculation utilizes the atom-pairwise dispersion correction
with the zero-damping scheme (D30)
Cite in your paper:
S.Grimme, J.Antony, S.Ehrlich and H.Krieg, J.Chem.Phys., 132, (2010), 154104 
   

XCFun DFT library Copyright 2009-2010 Ulf Ekstrom and contributors.
See http://admol.org/xcfun for more information. This is free soft-
ware; see the source code for copying conditions. There is ABSOLUTELY
NO WARRANTY; not even for MERCHANTABILITY or FITNESS FOR A PARTICULAR
PURPOSE. For details see the documentation. Scientific users of this 
library should cite U. Ekstrom, L. Visscher, R. Bast, A. J. Thorvald-
sen and K. Ruud; J.Chem.Theor.Comp. 2010, DOI: 10.1021/ct100117s
XCFun Version 0.99 
Your calculation utilizes the basis: 6-31G(d)
   H-He, Li-Ne : W. J. Hehre, R. Ditchfield and J.A. Pople, J. Chem. Phys. 56, 2257 (1972).
                 Note: He and Ne are unpublished basis sets taken from the Gaussian program.
                 Note: Li and B from J. D. Dill and J. A. Pople, J. Chem. Phys. 62, 2921 (1975).
   Na - Ar     : M. M. Francl, W. J. Pietro, W. J. Hehre, J. S. Binkley, M. S. Gordon, 
                 D. J. DeFrees and J. A. Pople, J. Chem. Phys. 77, 3654 (1982).
   K - Zn      : V. A. Rassolov, J. A. Pople, M. A. Ratner, and T. L. Windus, J. Chem. Phys. 109, 1223 (1998).

================================================================================
                                        WARNINGS
                       Please study these warnings very carefully!
================================================================================

Warning: TCutStore was < 0. Adjusted to Thresh (uncritical)

INFO   : the flag for use of LIBINT has been found!

================================================================================
                                       INPUT FILE
================================================================================
NAME = initial2.inp
|  1> ! WB97X-D3 6-31G(d) VerySlowConv
|  2> ! KDIIS NOSOSCF
|  3> %base "Scan_2"
|  4> 
|  5> %scf
|  6> maxiter 999
|  7> end
|  8> 
|  9> * xyz 0 1
| 10> C         -3.849460864364    2.344257336447    0.035730645081
| 11> O         -2.761263979851    2.249535151375   -0.074475999188
| 12> H         -4.342414334578    3.364927880450   -0.154469500368
| 13> H         -4.335955990071    2.054258859219    1.035816119188
| 14> H         -4.400622613807    1.688550118417   -0.683303115608
| 15> H         -2.197392217329    2.790100654092    0.517701850895
| 16> **                         ****END OF INPUT****
================================================================================

                       ****************************
                       * Single Point Calculation *
                       ****************************

---------------------------------
CARTESIAN COORDINATES (ANGSTROEM)
---------------------------------
  C     -3.849461    2.344257    0.035731
  O     -2.761264    2.249535   -0.074476
  H     -4.342414    3.364928   -0.154470
  H     -4.335956    2.054259    1.035816
  H     -4.400623    1.688550   -0.683303
  H     -2.197392    2.790101    0.517702

----------------------------
CARTESIAN COORDINATES (A.U.)
----------------------------
  NO LB      ZA    FRAG     MASS         X           Y           Z
   0 C     6.0000    0    12.011   -7.274427    4.430004    0.067521
   1 O     8.0000    0    15.999   -5.218033    4.251005   -0.140739
   2 H     1.0000    0     1.008   -8.205974    6.358792   -0.291905
   3 H     1.0000    0     1.008   -8.193769    3.881987    1.957409
   4 H     1.0000    0     1.008   -8.315972    3.190897   -1.291256
   5 H     1.0000    0     1.008   -4.152469    5.272526    0.978315

--------------------------------
INTERNAL COORDINATES (ANGSTROEM)
--------------------------------
 C      0   0   0     0.000000000000     0.00000000     0.00000000
 O      1   0   0     1.097857120143     0.00000000     0.00000000
 H      1   2   0     1.149324835945   119.02176432     0.00000000
 H      1   2   3     1.149324836437   119.02176430   236.51293990
 H      1   2   3     1.118365226049   111.92333015   118.25646996
 H      2   1   3     0.980222950877   117.51378663    61.74353000

---------------------------
INTERNAL COORDINATES (A.U.)
---------------------------
 C      0   0   0     0.000000000000     0.00000000     0.00000000
 O      1   0   0     2.074649291247     0.00000000     0.00000000
 H      1   2   0     2.171909178850   119.02176432     0.00000000
 H      1   2   3     2.171909179780   119.02176430   236.51293990
 H      1   2   3     2.113403994934   111.92333015   118.25646996
 H      2   1   3     1.852352927342   117.51378663    61.74353000

---------------------
BASIS SET INFORMATION
---------------------
There are 3 groups of distinct atoms

 Group   1 Type C   : 10s4p1d contracted to 3s2p1d pattern {631/31/1}
 Group   2 Type O   : 10s4p1d contracted to 3s2p1d pattern {631/31/1}
 Group   3 Type H   : 4s contracted to 2s pattern {31}

Atom   0C    basis set group =>   1
Atom   1O    basis set group =>   2
Atom   2H    basis set group =>   3
Atom   3H    basis set group =>   3
Atom   4H    basis set group =>   3
Atom   5H    basis set group =>   3
------------------------------------------------------------------------------
                           ORCA GTO INTEGRAL CALCULATION
------------------------------------------------------------------------------

                         BASIS SET STATISTICS AND STARTUP INFO

 # of primitive gaussian shells          ...   46
 # of primitive gaussian functions       ...   70
 # of contracted shells                  ...   20
 # of contracted basis functions         ...   36
 Highest angular momentum                ...    2
 Maximum contraction depth               ...    6
 Integral package used                   ... LIBINT
 Integral threshhold            Thresh   ...  1.000e-10
 Primitive cut-off              TCut     ...  1.000e-11


------------------------------ INTEGRAL EVALUATION ----------------------------


 * One electron integrals 
 Pre-screening matrix                    ... done
 Shell pair data                         ... done (   0.000 sec)

-------------------------------------------------------------------------------
                                 ORCA SCF
-------------------------------------------------------------------------------

------------
SCF SETTINGS
------------
Hamiltonian:
 Density Functional     Method          .... DFT(GTOs)
 Exchange Functional    Exchange        .... WB97X-D3
 Correlation Functional Correlation     .... WB97X-D3
 Gradients option       PostSCFGGA      .... off
 Hybrid DFT is turned on
   Fraction HF Exchange ScalHFX         ....  0.195728
   Scaling of DF-GGA-X  ScalDFX         ....  0.000000
   Scaling of DF-GGA-C  ScalDFC         ....  1.000000
   Scaling of DF-LDA-C  ScalLDAC        ....  1.000000
   Perturbative correction              ....  0.000000
 Long-range corrected/Screened/Range-Separated Hybrid DFT is turned on
   Amount of maximum screened exact exchange              ....  0.804272
   Range separation parameter mu (erf(mu*r12)/r12)        ....  0.250000


General Settings:
 Integral files         IntName         .... Scan_2
 Hartree-Fock type      HFTyp           .... RHF
 Total Charge           Charge          ....    0
 Multiplicity           Mult            ....    1
 Number of Electrons    NEL             ....   18
 Basis Dimension        Dim             ....   36
 Nuclear Repulsion      ENuc            ....     45.8323222739 Eh

Convergence Acceleration:
 DIIS                   CNVDIIS         .... on
   Start iteration      DIISMaxIt       ....     0
   Startup error        DIISStart       ....  0.200000
   # of expansion vecs  DIISMaxEq       ....     5
   Bias factor          DIISBfac        ....   1.050
   Max. coefficient     DIISMaxC        ....  10.000
 Newton-Raphson         CNVNR           .... off
 SOSCF                  CNVSOSCF        .... off
 Level Shifting         CNVShift        .... off
 Zerner damping         CNVZerner       .... off
 Static damping         CNVDamp         .... off
 Fernandez-Rico         CNVRico         .... off

SCF Procedure:
 Maximum # iterations   MaxIter         ....   999
 SCF integral mode      SCFMode         .... Direct
   Integral package                     .... LIBINT
 Reset frequeny         DirectResetFreq ....    20
 Integral Threshold     Thresh          ....  1.000e-10 Eh
 Primitive CutOff       TCut            ....  1.000e-11 Eh

Convergence Tolerance:
 Convergence Check Mode ConvCheckMode   .... All-Criteria
 Convergence forced     ConvForced      .... 0
 Energy Change          TolE            ....  1.000e-06 Eh
 Max Density Change     TolMaxP         ....  1.000e-05
 RMS Density Change     TolRMSP         ....  1.000e-06
 DIIS Error             TolErr          ....  1.000e-06


Diagonalization of the overlap matrix:
Smallest eigenvalue                        ... 9.673e-03
Time for diagonalization                   ...    0.001 sec
Threshold for overlap eigenvalues          ... 1.000e-08
Number of eigenvalues below threshold      ... 0
Time for construction of square roots      ...    0.005 sec
Total time needed                          ...    0.006 sec

-------------------
DFT GRID GENERATION
-------------------

General Integration Accuracy     IntAcc      ...  4.340
Radial Grid Type                 RadialGrid  ... Gauss-Chebyshev
Angular Grid (max. acc.)         AngularGrid ... Lebedev-110
Angular grid pruning method      GridPruning ... 3 (G Style)
Weight generation scheme         WeightScheme... Becke
Basis function cutoff            BFCut       ...    1.0000e-10
Integration weight cutoff        WCut        ...    1.0000e-14
Grids for H and He will be reduced by one unit

# of grid points (after initial pruning)     ...   6548 (   0.0 sec)
# of grid points (after weights+screening)   ...   6335 (   0.0 sec)
nearest neighbour list constructed           ...    0.0 sec
Grid point re-assignment to atoms done       ...    0.0 sec
Grid point division into batches done        ...    0.0 sec
Reduced shell lists constructed in    0.0 sec

Total number of grid points                  ...     6335
Total number of batches                      ...      102
Average number of points per batch           ...       62
Average number of grid points per atom       ...     1056
Average number of shells per batch           ...    17.84 (89.22%)
Average number of basis functions per batch  ...    32.47 (90.18%)
Average number of large shells per batch     ...    16.42 (92.00%)
Average number of large basis fcns per batch ...    30.38 (93.57%)
Maximum spatial batch extension              ...  19.49, 25.60, 21.59 au
Average spatial batch extension              ...   4.63,  4.73,  4.54 au

Time for grid setup =    0.048 sec

------------------------------
INITIAL GUESS: MODEL POTENTIAL
------------------------------
Loading Hartree-Fock densities                     ... done
Calculating cut-offs                               ... done
Setting up the integral package                    ... done
Initializing the effective Hamiltonian             ... done
Starting the Coulomb interaction                   ... done (   0.0 sec)
Reading the grid                                   ... done
Mapping shells                                     ... done
Starting the XC term evaluation                    ... done (   0.0 sec)
  promolecular density results
     # of electrons  =     17.993233706
     EX              =    -14.543684961
     EC              =     -0.588279883
     EX+EC           =    -15.131964844
Transforming the Hamiltonian                       ... done (   0.0 sec)
Diagonalizing the Hamiltonian                      ... done (   0.0 sec)
Back transforming the eigenvectors                 ... done (   0.0 sec)
Now organizing SCF variables                       ... done
                      ------------------
                      INITIAL GUESS DONE (   0.2 sec)
                      ------------------
--------------
SCF ITERATIONS
--------------
ITER       Energy         Delta-E        Max-DP      RMS-DP      [F,P]   Gradient Norm
               ***  Starting incremental Fock matrix formation  ***
                             ****Resetting KDIIS****
                             ****Turning on KDIIS(Cayley)****
  0   -115.4399551687   0.000000000000 0.03273144  0.00258344  0.1162505   0.123356425
  1   -115.4820406481  -0.042085479342 0.02502269  0.00213429  0.0925845   0.098455309
  2   -115.5077498222  -0.025709174132 0.04004917  0.00358079  0.0747608   0.080065509
  3   -115.5384795897  -0.030729767450 0.05959336  0.00568303  0.0452998   0.049807709
  4   -115.5579181178  -0.019438528180 0.00573867  0.00068966  0.0032050   0.002899290
  5   -115.5580115018  -0.000093383940 0.00088599  0.00012496  0.0010379   0.000896815
  6   -115.5580189538  -0.000007451979 0.00033112  0.00003930  0.0004623   0.000425587
  7   -115.5580205311  -0.000001577325 0.00029903  0.00002872  0.0001691   0.000164881
                          ***Energy convergence achieved***
  8   -115.5580208659  -0.000000334804 0.00002503  0.00000259  0.0000080   0.000009788
                           ***RMSP convergence achieved***
                           ***MAXP convergence achieved***
                    *** KDIIS BlockDiag ( 0.000 sec) ***

               *****************************************************
               *                     SUCCESS                       *
               *           SCF CONVERGED AFTER   9 CYCLES          *
               *****************************************************

Setting up the final grid:

General Integration Accuracy     IntAcc      ...  4.670
Radial Grid Type                 RadialGrid  ... Gauss-Chebyshev
Angular Grid (max. acc.)         AngularGrid ... Lebedev-302
Angular grid pruning method      GridPruning ... 3 (G Style)
Weight generation scheme         WeightScheme... Becke
Basis function cutoff            BFCut       ...    1.0000e-10
Integration weight cutoff        WCut        ...    1.0000e-14
Grids for H and He will be reduced by one unit

# of grid points (after initial pruning)     ...  26000 (   0.0 sec)
# of grid points (after weights+screening)   ...  25125 (   0.0 sec)
nearest neighbour list constructed           ...    0.0 sec
Grid point re-assignment to atoms done       ...    0.0 sec
Grid point division into batches done        ...    0.1 sec
Reduced shell lists constructed in    0.2 sec

Total number of grid points                  ...    25125
Total number of batches                      ...      396
Average number of points per batch           ...       63
Average number of grid points per atom       ...     4188
Average number of shells per batch           ...    16.45 (82.24%)
Average number of basis functions per batch  ...    30.08 (83.56%)
Average number of large shells per batch     ...    14.91 (90.66%)
Average number of large basis fcns per batch ...    27.65 (91.93%)
Maximum spatial batch extension              ...  18.12, 17.32, 16.53 au
Average spatial batch extension              ...   2.99,  3.07,  3.01 au

Final grid set up in    0.2 sec
Final integration                            ... done (   0.2 sec)
Change in XC energy                          ...    -0.000142807
Integrated number of electrons               ...    18.000025991
Previous integrated no of electrons          ...    17.998400912

----------------
TOTAL SCF ENERGY
----------------

Total Energy       :         -115.55816367 Eh           -3144.49750 eV

Components:
Nuclear Repulsion  :           45.83232227 Eh            1247.16089 eV
Electronic Energy  :         -161.39048595 Eh           -4391.65839 eV
One Electron Energy:         -247.16257877 Eh           -6725.63569 eV
Two Electron Energy:           85.77209282 Eh            2333.97730 eV

Virial components:
Potential Energy   :         -231.45263108 Eh           -6298.14628 eV
Kinetic Energy     :          115.89446741 Eh            3153.64879 eV
Virial Ratio       :            1.99709819


DFT components:
N(Alpha)           :        9.000012995402 electrons
N(Beta)            :        9.000012995402 electrons
N(Total)           :       18.000025990804 electrons
E(XC)              :      -10.779062834273 Eh       

---------------
SCF CONVERGENCE
---------------

  Last Energy change         ...   -1.2448e-09  Tolerance :   1.0000e-06
  Last MAX-Density change    ...    8.5717e-06  Tolerance :   1.0000e-05
  Last RMS-Density change    ...    7.7941e-07  Tolerance :   1.0000e-06
  Last DIIS Error            ...    2.6838e-06  Tolerance :   1.0000e-06

             **** THE GBW FILE WAS UPDATED (Scan_2.gbw) ****
             **** DENSITY FILE WAS UPDATED (Scan_2.scfp.tmp) ****
             **** ENERGY FILE WAS UPDATED (Scan_2.en.tmp) ****
----------------
ORBITAL ENERGIES
----------------

  NO   OCC          E(Eh)            E(eV) 
   0   2.0000     -19.260971      -524.1177 
   1   2.0000     -10.309909      -280.5469 
   2   2.0000      -1.275750       -34.7149 
   3   2.0000      -0.799951       -21.7678 
   4   2.0000      -0.665400       -18.1065 
   5   2.0000      -0.593248       -16.1431 
   6   2.0000      -0.589329       -16.0365 
   7   2.0000      -0.377391       -10.2693 
   8   2.0000      -0.332462        -9.0467 
   9   0.0000       0.156360         4.2548 
  10   0.0000       0.225816         6.1448 
  11   0.0000       0.277120         7.5408 
  12   0.0000       0.289706         7.8833 
  13   0.0000       0.371472        10.1083 
  14   0.0000       0.670846        18.2547 
  15   0.0000       0.677486        18.4353 
  16   0.0000       0.820686        22.3320 
  17   0.0000       0.911245        24.7962 
  18   0.0000       0.932576        25.3767 
  19   0.0000       0.988410        26.8960 
  20   0.0000       1.052470        28.6392 
  21   0.0000       1.071193        29.1486 
  22   0.0000       1.073398        29.2086 
  23   0.0000       1.164841        31.6969 
  24   0.0000       1.227008        33.3886 
  25   0.0000       1.621594        44.1258 
  26   0.0000       1.709336        46.5134 
  27   0.0000       1.803546        49.0770 
  28   0.0000       1.816546        49.4307 
  29   0.0000       2.029958        55.2380 
  30   0.0000       2.284091        62.1533 
  31   0.0000       2.558081        69.6089 
  32   0.0000       2.704752        73.6000 
  33   0.0000       2.806196        76.3605 
  34   0.0000       2.807008        76.3826 
  35   0.0000       3.190840        86.8272 

                    ********************************
                    * MULLIKEN POPULATION ANALYSIS *
                    ********************************

-----------------------
MULLIKEN ATOMIC CHARGES
-----------------------
   0 C :   -0.272457
   1 O :   -0.403401
   2 H :    0.058605
   3 H :    0.058763
   4 H :    0.129360
   5 H :    0.429130
Sum of atomic charges:   -0.0000000

--------------------------------
MULLIKEN REDUCED ORBITAL CHARGES
--------------------------------
  0 C s       :     3.202577  s :     3.202577
      pz      :     1.063552  p :     2.957140
      px      :     0.835712
      py      :     1.057876
      dz2     :     0.013023  d :     0.112740
      dxz     :     0.035920
      dyz     :     0.005240
      dx2y2   :     0.021702
      dxy     :     0.036855
  1 O s       :     3.690747  s :     3.690747
      pz      :     1.686055  p :     4.673968
      px      :     1.276769
      py      :     1.711143
      dz2     :     0.002582  d :     0.038686
      dxz     :     0.013169
      dyz     :     0.006437
      dx2y2   :     0.004206
      dxy     :     0.012293
  2 H s       :     0.941395  s :     0.941395
  3 H s       :     0.941237  s :     0.941237
  4 H s       :     0.870640  s :     0.870640
  5 H s       :     0.570870  s :     0.570870


                     *******************************
                     * LOEWDIN POPULATION ANALYSIS *
                     *******************************

----------------------
LOEWDIN ATOMIC CHARGES
----------------------
   0 C :   -0.316539
   1 O :   -0.206617
   2 H :    0.041880
   3 H :    0.041769
   4 H :    0.100161
   5 H :    0.339346

-------------------------------
LOEWDIN REDUCED ORBITAL CHARGES
-------------------------------
  0 C s       :     2.886077  s :     2.886077
      pz      :     1.082427  p :     3.155928
      px      :     0.993782
      py      :     1.079720
      dz2     :     0.027799  d :     0.274534
      dxz     :     0.093607
      dyz     :     0.007829
      dx2y2   :     0.049497
      dxy     :     0.095802
  1 O s       :     3.350979  s :     3.350979
      pz      :     1.657802  p :     4.746986
      px      :     1.408368
      py      :     1.680816
      dz2     :     0.008162  d :     0.108652
      dxz     :     0.037625
      dyz     :     0.007191
      dx2y2   :     0.020082
      dxy     :     0.035593
  2 H s       :     0.958120  s :     0.958120
  3 H s       :     0.958231  s :     0.958231
  4 H s       :     0.899839  s :     0.899839
  5 H s       :     0.660654  s :     0.660654


                      *****************************
                      * MAYER POPULATION ANALYSIS *
                      *****************************

  NA   - Mulliken gross atomic population
  ZA   - Total nuclear charge
  QA   - Mulliken gross atomic charge
  VA   - Mayer's total valence
  BVA  - Mayer's bonded valence
  FA   - Mayer's free valence

  ATOM       NA         ZA         QA         VA         BVA        FA
  0 C      6.2725     6.0000    -0.2725     3.9522     3.9522     0.0000
  1 O      8.4034     8.0000    -0.4034     2.0044     2.0044     0.0000
  2 H      0.9414     1.0000     0.0586     0.9339     0.9339    -0.0000
  3 H      0.9412     1.0000     0.0588     0.9338     0.9338    -0.0000
  4 H      0.8706     1.0000     0.1294     0.9321     0.9321     0.0000
  5 H      0.5709     1.0000     0.4291     0.7781     0.7781     0.0000

  Mayer bond orders larger than 0.1
B(  0-C ,  1-O ) :   1.1809 B(  0-C ,  2-H ) :   0.9266 B(  0-C ,  3-H ) :   0.9265 
B(  0-C ,  4-H ) :   0.9259 B(  1-O ,  5-H ) :   0.7583 

-------
TIMINGS
-------

Total SCF time: 0 days 0 hours 0 min 3 sec 

Total time                  ....       3.894 sec
Sum of individual times     ....       3.711 sec  ( 95.3%)

Fock matrix formation       ....       3.271 sec  ( 84.0%)
  XC integration            ....       1.026 sec  ( 31.4% of F)
    Basis function eval.    ....       0.394 sec  ( 38.4% of XC)
    Density eval.           ....       0.047 sec  (  4.6% of XC)
    XC-Functional eval.     ....       0.256 sec  ( 25.0% of XC)
    XC-Potential eval.      ....       0.053 sec  (  5.2% of XC)
Diagonalization             ....       0.010 sec  (  0.2%)
Density matrix formation    ....       0.000 sec  (  0.0%)
Population analysis         ....       0.011 sec  (  0.3%)
Initial guess               ....       0.146 sec  (  3.8%)
Orbital Transformation      ....       0.000 sec  (  0.0%)
Orbital Orthonormalization  ....       0.000 sec  (  0.0%)
DIIS solution               ....       0.000 sec  (  0.0%)
Grid generation             ....       0.274 sec  (  7.0%)


-------------------------------------------------------------------------------
                          DFT DISPERSION CORRECTION                            
                                                                               
                              DFTD3 V3.1  Rev 1                                
                              USING zero damping                               
-------------------------------------------------------------------------------
The omegaB97X-D3 functional is recognized. Fit by Chai et al.
Active option DFTDOPT                   ...         3   

molecular C6(AA) [au] = 208.693706 


            DFT-D V3
 parameters
 s6 scaling factor         :     1.0000 
 rs6 scaling factor        :     1.2810 
 s8 scaling factor         :     1.0000 
 rs8 scaling factor        :     1.0940 
 Damping factor alpha6     :    14.0000 
 Damping factor alpha8     :    16.0000 
 ad hoc parameters k1-k3   :    16.0000     1.3333    -4.0000 

 Edisp/kcal,au: -0.117135517494  -0.000186667309 
 E6   /kcal   :  -0.022998975 
 E8   /kcal   :  -0.094136543 
 % E8         :  80.365498599 

-------------------------   ----------------
Dispersion correction           -0.000186667
-------------------------   ----------------


-------------------------   --------------------
FINAL SINGLE POINT ENERGY      -115.558350341365
-------------------------   --------------------


                            ***************************************
                            *     ORCA property calculations      *
                            ***************************************

                                    ---------------------
                                    Active property flags
                                    ---------------------
   (+) Dipole Moment


------------------------------------------------------------------------------
                       ORCA ELECTRIC PROPERTIES CALCULATION
------------------------------------------------------------------------------

Dipole Moment Calculation                       ... on
Quadrupole Moment Calculation                   ... off
Polarizability Calculation                      ... off
GBWName                                         ... Scan_2.gbw
Electron density file                           ... Scan_2.scfp.tmp

-------------
DIPOLE MOMENT
-------------
                                X             Y             Z
Electronic contribution:      2.34608      -0.27159      -0.31261
Nuclear contribution   :     -1.93143       0.60367       0.67520
                        -----------------------------------------
Total Dipole Moment    :      0.41466       0.33209       0.36260
                        -----------------------------------------
Magnitude (a.u.)       :      0.64319
Magnitude (Debye)      :      1.63487


Timings for individual modules:

Sum of individual times         ...        4.228 sec (=   0.070 min)
GTO integral calculation        ...        0.302 sec (=   0.005 min)   7.1 %
SCF iterations                  ...        3.927 sec (=   0.065 min)  92.9 %
                             ****ORCA TERMINATED NORMALLY****
TOTAL RUN TIME: 0 days 0 hours 0 minutes 4 seconds 586 msec
