
                                 *****************
                                 * O   R   C   A *
                                 *****************

           --- An Ab Initio, DFT and Semiempirical electronic structure package ---

                  #######################################################
                  #                        -***-                        #
                  #  Department of molecular theory and spectroscopy    #
                  #              Directorship: Frank Neese              #
                  # Max Planck Institute for Chemical Energy Conversion #
                  #                  D-45470 Muelheim/Ruhr              #
                  #                       Germany                       #
                  #                                                     #
                  #                  All rights reserved                #
                  #                        -***-                        #
                  #######################################################


                         Program Version 4.0.0.2 - RELEASE -


 With contributions from (in alphabetic order):
   Daniel Aravena         : Magnetic Properties
   Michael Atanasov       : Ab Initio Ligand Field Theory
   Ute Becker             : Parallelization
   Martin Brehm           : Molecular dynamics
   Dmytro Bykov           : SCF Hessian
   Vijay G. Chilkuri      : MRCI spin determinant printing
   Dipayan Datta          : RHF DLPNO-CCSD density
   Achintya Kumar Dutta   : EOM-CC, STEOM-CC
   Dmitry Ganyushin       : Spin-Orbit,Spin-Spin,Magnetic field MRCI
   Yang Guo               : DLPNO-NEVPT2, CIM, IAO-localization
   Andreas Hansen         : Spin unrestricted coupled pair/coupled cluster methods
   Lee Huntington         : MR-EOM, pCC
   Robert Izsak           : Overlap fitted RIJCOSX, COSX-SCS-MP3, EOM
   Christian Kollmar      : KDIIS, OOCD, Brueckner-CCSD(T), CCSD density
   Simone Kossmann        : Meta GGA functionals, TD-DFT gradient, OOMP2, MP2 Hessian
   Martin Krupicka        : AUTO-CI
   Dagmar Lenk            : GEPOL surface
   Dimitrios Liakos       : Extrapolation schemes; parallel MDCI
   Dimitrios Manganas     : ROCIS; embedding schemes
   Dimitrios Pantazis     : SARC Basis sets
   Taras Petrenko         : DFT Hessian,TD-DFT gradient, ASA, ECA, R-Raman, ABS, FL, XAS/XES, NRVS
   Peter Pinski           : DLPNO-MP2
   Christoph Reimann      : Effective Core Potentials
   Marius Retegan         : Local ZFS, SOC
   Christoph Riplinger    : Optimizer, TS searches, QM/MM, DLPNO-CCSD(T), (RO)-DLPNO pert. Triples
   Tobias Risthaus        : Range-separated hybrids, TD-DFT gradient, RPA, STAB
   Michael Roemelt        : Restricted open shell CIS
   Masaaki Saitow         : Open-shell DLPNO
   Barbara Sandhoefer     : DKH picture change effects
   Kantharuban Sivalingam : CASSCF convergence, NEVPT2, FIC-MRCI
   Georgi Stoychev        : AutoAux
   Boris Wezisla          : Elementary symmetry handling
   Frank Wennmohs         : Technical directorship


 We gratefully acknowledge several colleagues who have allowed us to
 interface, adapt or use parts of their codes:
   Stefan Grimme, W. Hujo, H. Kruse,             : VdW corrections, initial TS optimization,
                  C. Bannwarth                     DFT functionals, gCP, sTDA/sTD-DF
   Ed Valeev                                     : LibInt (2-el integral package), F12 methods
   Garnet Chan, S. Sharma, J. Yang, R. Olivares  : DMRG
   Ulf Ekstrom                                   : XCFun DFT Library
   Mihaly Kallay                                 : mrcc  (arbitrary order and MRCC methods)
   Jiri Pittner, Ondrej Demel                    : Mk-CCSD
   Frank Weinhold                                : gennbo (NPA and NBO analysis)
   Christopher J. Cramer and Donald G. Truhlar   : smd solvation model


 Your calculation uses the libint2 library for the computation of 2-el integrals
 For citations please refer to: http://libint.valeyev.net

 This ORCA versions uses:
   CBLAS   interface :  Fast vector & matrix operations
   LAPACKE interface :  Fast linear algebra routines
   SCALAPACK package :  Parallel linear algebra routines


Your calculation utilizes the atom-pairwise dispersion correction
with the zero-damping scheme (D30)
Cite in your paper:
S.Grimme, J.Antony, S.Ehrlich and H.Krieg, J.Chem.Phys., 132, (2010), 154104 
   

XCFun DFT library Copyright 2009-2010 Ulf Ekstrom and contributors.
See http://admol.org/xcfun for more information. This is free soft-
ware; see the source code for copying conditions. There is ABSOLUTELY
NO WARRANTY; not even for MERCHANTABILITY or FITNESS FOR A PARTICULAR
PURPOSE. For details see the documentation. Scientific users of this 
library should cite U. Ekstrom, L. Visscher, R. Bast, A. J. Thorvald-
sen and K. Ruud; J.Chem.Theor.Comp. 2010, DOI: 10.1021/ct100117s
XCFun Version 0.99 
Your calculation utilizes the basis: 6-31G(d)
   H-He, Li-Ne : W. J. Hehre, R. Ditchfield and J.A. Pople, J. Chem. Phys. 56, 2257 (1972).
                 Note: He and Ne are unpublished basis sets taken from the Gaussian program.
                 Note: Li and B from J. D. Dill and J. A. Pople, J. Chem. Phys. 62, 2921 (1975).
   Na - Ar     : M. M. Francl, W. J. Pietro, W. J. Hehre, J. S. Binkley, M. S. Gordon, 
                 D. J. DeFrees and J. A. Pople, J. Chem. Phys. 77, 3654 (1982).
   K - Zn      : V. A. Rassolov, J. A. Pople, M. A. Ratner, and T. L. Windus, J. Chem. Phys. 109, 1223 (1998).

================================================================================
                                        WARNINGS
                       Please study these warnings very carefully!
================================================================================

Warning: TCutStore was < 0. Adjusted to Thresh (uncritical)

INFO   : the flag for use of LIBINT has been found!

================================================================================
                                       INPUT FILE
================================================================================
NAME = initial20.inp
|  1> ! WB97X-D3 6-31G(d) VerySlowConv
|  2> ! KDIIS NOSOSCF
|  3> %base "Scan_20"
|  4> 
|  5> %scf
|  6> maxiter 999
|  7> end
|  8> 
|  9> * xyz 0 1
| 10> C         -4.462225019337    2.353312064787    0.049025791862
| 11> O         -2.074526612010    2.226851776352   -0.103178758704
| 12> H         -4.476743923683    3.398371325296   -0.180321205760
| 13> H         -4.469975097092    2.024589847817    1.067279857760
| 14> H         -4.569367402483    1.637536410008   -0.738560988021
| 15> H         -1.834271945395    2.850968575740    0.582755302863
| 16> **                         ****END OF INPUT****
================================================================================

                       ****************************
                       * Single Point Calculation *
                       ****************************

---------------------------------
CARTESIAN COORDINATES (ANGSTROEM)
---------------------------------
  C     -4.462225    2.353312    0.049026
  O     -2.074527    2.226852   -0.103179
  H     -4.476744    3.398371   -0.180321
  H     -4.469975    2.024590    1.067280
  H     -4.569367    1.637536   -0.738561
  H     -1.834272    2.850969    0.582755

----------------------------
CARTESIAN COORDINATES (A.U.)
----------------------------
  NO LB      ZA    FRAG     MASS         X           Y           Z
   0 C     6.0000    0    12.011   -8.432383    4.447115    0.092645
   1 O     8.0000    0    15.999   -3.920287    4.208140   -0.194980
   2 H     1.0000    0     1.008   -8.459820    6.421991   -0.340758
   3 H     1.0000    0     1.008   -8.447029    3.825920    2.016867
   4 H     1.0000    0     1.008   -8.634853    3.094495   -1.395678
   5 H     1.0000    0     1.008   -3.466272    5.387550    1.101248

--------------------------------
INTERNAL COORDINATES (ANGSTROEM)
--------------------------------
 C      0   0   0     0.000000000000     0.00000000     0.00000000
 O      1   0   0     2.395884411677     0.00000000     0.00000000
 H      1   2   0     1.070027897710    92.94955340     0.00000000
 H      1   2   3     1.070027897932    92.94954983   239.47586079
 H      1   2   3     1.069629475139    91.01580424   119.73793061
 H      2   1   3     0.957992495235    99.79128267    60.26201059

---------------------------
INTERNAL COORDINATES (A.U.)
---------------------------
 C      0   0   0     0.000000000000     0.00000000     0.00000000
 O      1   0   0     4.527565386600     0.00000000     0.00000000
 H      1   2   0     2.022059682327    92.94955340     0.00000000
 H      1   2   3     2.022059682747    92.94954983   239.47586079
 H      1   2   3     2.021306772783    91.01580424   119.73793061
 H      2   1   3     1.810343454346    99.79128267    60.26201059

---------------------
BASIS SET INFORMATION
---------------------
There are 3 groups of distinct atoms

 Group   1 Type C   : 10s4p1d contracted to 3s2p1d pattern {631/31/1}
 Group   2 Type O   : 10s4p1d contracted to 3s2p1d pattern {631/31/1}
 Group   3 Type H   : 4s contracted to 2s pattern {31}

Atom   0C    basis set group =>   1
Atom   1O    basis set group =>   2
Atom   2H    basis set group =>   3
Atom   3H    basis set group =>   3
Atom   4H    basis set group =>   3
Atom   5H    basis set group =>   3
------------------------------------------------------------------------------
                           ORCA GTO INTEGRAL CALCULATION
------------------------------------------------------------------------------

                         BASIS SET STATISTICS AND STARTUP INFO

 # of primitive gaussian shells          ...   46
 # of primitive gaussian functions       ...   70
 # of contracted shells                  ...   20
 # of contracted basis functions         ...   36
 Highest angular momentum                ...    2
 Maximum contraction depth               ...    6
 Integral package used                   ... LIBINT
 Integral threshhold            Thresh   ...  1.000e-10
 Primitive cut-off              TCut     ...  1.000e-11


------------------------------ INTEGRAL EVALUATION ----------------------------


 * One electron integrals 
 Pre-screening matrix                    ... done
 Shell pair data                         ... done (   0.000 sec)

-------------------------------------------------------------------------------
                                 ORCA SCF
-------------------------------------------------------------------------------

------------
SCF SETTINGS
------------
Hamiltonian:
 Density Functional     Method          .... DFT(GTOs)
 Exchange Functional    Exchange        .... WB97X-D3
 Correlation Functional Correlation     .... WB97X-D3
 Gradients option       PostSCFGGA      .... off
 Hybrid DFT is turned on
   Fraction HF Exchange ScalHFX         ....  0.195728
   Scaling of DF-GGA-X  ScalDFX         ....  0.000000
   Scaling of DF-GGA-C  ScalDFC         ....  1.000000
   Scaling of DF-LDA-C  ScalLDAC        ....  1.000000
   Perturbative correction              ....  0.000000
 Long-range corrected/Screened/Range-Separated Hybrid DFT is turned on
   Amount of maximum screened exact exchange              ....  0.804272
   Range separation parameter mu (erf(mu*r12)/r12)        ....  0.250000


General Settings:
 Integral files         IntName         .... Scan_20
 Hartree-Fock type      HFTyp           .... RHF
 Total Charge           Charge          ....    0
 Multiplicity           Mult            ....    1
 Number of Electrons    NEL             ....   18
 Basis Dimension        Dim             ....   36
 Nuclear Repulsion      ENuc            ....     31.2539372089 Eh

Convergence Acceleration:
 DIIS                   CNVDIIS         .... on
   Start iteration      DIISMaxIt       ....     0
   Startup error        DIISStart       ....  0.200000
   # of expansion vecs  DIISMaxEq       ....     5
   Bias factor          DIISBfac        ....   1.050
   Max. coefficient     DIISMaxC        ....  10.000
 Newton-Raphson         CNVNR           .... off
 SOSCF                  CNVSOSCF        .... off
 Level Shifting         CNVShift        .... off
 Zerner damping         CNVZerner       .... off
 Static damping         CNVDamp         .... off
 Fernandez-Rico         CNVRico         .... off

SCF Procedure:
 Maximum # iterations   MaxIter         ....   999
 SCF integral mode      SCFMode         .... Direct
   Integral package                     .... LIBINT
 Reset frequeny         DirectResetFreq ....    20
 Integral Threshold     Thresh          ....  1.000e-10 Eh
 Primitive CutOff       TCut            ....  1.000e-11 Eh

Convergence Tolerance:
 Convergence Check Mode ConvCheckMode   .... All-Criteria
 Convergence forced     ConvForced      .... 0
 Energy Change          TolE            ....  1.000e-06 Eh
 Max Density Change     TolMaxP         ....  1.000e-05
 RMS Density Change     TolRMSP         ....  1.000e-06
 DIIS Error             TolErr          ....  1.000e-06


Diagonalization of the overlap matrix:
Smallest eigenvalue                        ... 2.654e-02
Time for diagonalization                   ...    0.001 sec
Threshold for overlap eigenvalues          ... 1.000e-08
Number of eigenvalues below threshold      ... 0
Time for construction of square roots      ...    0.009 sec
Total time needed                          ...    0.009 sec

-------------------
DFT GRID GENERATION
-------------------

General Integration Accuracy     IntAcc      ...  4.340
Radial Grid Type                 RadialGrid  ... Gauss-Chebyshev
Angular Grid (max. acc.)         AngularGrid ... Lebedev-110
Angular grid pruning method      GridPruning ... 3 (G Style)
Weight generation scheme         WeightScheme... Becke
Basis function cutoff            BFCut       ...    1.0000e-10
Integration weight cutoff        WCut        ...    1.0000e-14
Grids for H and He will be reduced by one unit

# of grid points (after initial pruning)     ...   6548 (   0.0 sec)
# of grid points (after weights+screening)   ...   6402 (   0.0 sec)
nearest neighbour list constructed           ...    0.0 sec
Grid point re-assignment to atoms done       ...    0.0 sec
Grid point division into batches done        ...    0.0 sec
Reduced shell lists constructed in    0.0 sec

Total number of grid points                  ...     6402
Total number of batches                      ...      104
Average number of points per batch           ...       61
Average number of grid points per atom       ...     1067
Average number of shells per batch           ...    17.10 (85.48%)
Average number of basis functions per batch  ...    31.32 (87.01%)
Average number of large shells per batch     ...    14.56 (85.18%)
Average number of large basis fcns per batch ...    26.41 (84.31%)
Maximum spatial batch extension              ...  19.49, 21.59, 21.59 au
Average spatial batch extension              ...   4.92,  4.59,  4.44 au

Time for grid setup =    0.051 sec

------------------------------
INITIAL GUESS: MODEL POTENTIAL
------------------------------
Loading Hartree-Fock densities                     ... done
Calculating cut-offs                               ... done
Setting up the integral package                    ... done
Initializing the effective Hamiltonian             ... done
Starting the Coulomb interaction                   ... done (   0.0 sec)
Reading the grid                                   ... done
Mapping shells                                     ... done
Starting the XC term evaluation                    ... done (   0.0 sec)
  promolecular density results
     # of electrons  =     17.997940913
     EX              =    -14.317503731
     EC              =     -0.546701250
     EX+EC           =    -14.864204981
Transforming the Hamiltonian                       ... done (   0.0 sec)
Diagonalizing the Hamiltonian                      ... done (   0.0 sec)
Back transforming the eigenvectors                 ... done (   0.0 sec)
Now organizing SCF variables                       ... done
                      ------------------
                      INITIAL GUESS DONE (   0.2 sec)
                      ------------------
--------------
SCF ITERATIONS
--------------
ITER       Energy         Delta-E        Max-DP      RMS-DP      [F,P]   Gradient Norm
               ***  Starting incremental Fock matrix formation  ***
                             ****Resetting KDIIS****
                             ****Turning on KDIIS(Cayley)****
  0   -115.3432193885   0.000000000000 0.05359393  0.00318125  0.1571387   0.148901413
  1   -115.4084995636  -0.065280175144 0.05416997  0.00286267  0.1360473   0.114487344
  2   -115.4567105937  -0.048211030057 0.11292507  0.00602164  0.1147842   0.088226668
  3   -115.5178631165  -0.061152522761 0.30607218  0.01896207  0.0515185   0.040257920
  4   -115.4474442682   0.070418848270 0.12335949  0.00833206  0.1476520   0.054251212
  5   -115.5176284982  -0.070184230046 0.08558147  0.00587531  0.0612778   0.020930033
  6   -115.5332705725  -0.015642074257 0.01831830  0.00110345  0.0062872   0.005220656
  7   -115.5325281554   0.000742417058 0.01909617  0.00156360  0.0176233   0.005977724
  8   -115.5339075586  -0.001379403127 0.00956002  0.00083356  0.0046790   0.001672700
  9   -115.5340107227  -0.000103164091 0.00301978  0.00021596  0.0018468   0.000679187
 10   -115.5340275465  -0.000016823875 0.00051854  0.00003495  0.0003443   0.000168768
                          ***Energy convergence achieved***
 11   -115.5340280508  -0.000000504222 0.00009216  0.00000663  0.0000424   0.000042110

            ***Energy convergence in two consecutive cycles with***
                    ***'reasonable' density convergence***
                       *** signaling convergence ***

                    *** KDIIS BlockDiag ( 0.000 sec) ***

               *****************************************************
               *                     SUCCESS                       *
               *           SCF CONVERGED AFTER  12 CYCLES          *
               *****************************************************

Setting up the final grid:

General Integration Accuracy     IntAcc      ...  4.670
Radial Grid Type                 RadialGrid  ... Gauss-Chebyshev
Angular Grid (max. acc.)         AngularGrid ... Lebedev-302
Angular grid pruning method      GridPruning ... 3 (G Style)
Weight generation scheme         WeightScheme... Becke
Basis function cutoff            BFCut       ...    1.0000e-10
Integration weight cutoff        WCut        ...    1.0000e-14
Grids for H and He will be reduced by one unit

# of grid points (after initial pruning)     ...  26000 (   0.0 sec)
# of grid points (after weights+screening)   ...  25303 (   0.0 sec)
nearest neighbour list constructed           ...    0.0 sec
Grid point re-assignment to atoms done       ...    0.0 sec
Grid point division into batches done        ...    0.1 sec
Reduced shell lists constructed in    0.2 sec

Total number of grid points                  ...    25303
Total number of batches                      ...      399
Average number of points per batch           ...       63
Average number of grid points per atom       ...     4217
Average number of shells per batch           ...    15.63 (78.16%)
Average number of basis functions per batch  ...    28.60 (79.45%)
Average number of large shells per batch     ...    13.09 (83.70%)
Average number of large basis fcns per batch ...    23.73 (82.96%)
Maximum spatial batch extension              ...  19.22, 20.64, 20.64 au
Average spatial batch extension              ...   3.10,  3.06,  3.03 au

Final grid set up in    0.2 sec
Final integration                            ... done (   0.2 sec)
Change in XC energy                          ...    -0.000168410
Integrated number of electrons               ...    17.999997041
Previous integrated no of electrons          ...    17.999074398

----------------
TOTAL SCF ENERGY
----------------

Total Energy       :         -115.53419648 Eh           -3143.84532 eV

Components:
Nuclear Repulsion  :           31.25393721 Eh             850.46287 eV
Electronic Energy  :         -146.78813369 Eh           -3994.30818 eV
One Electron Energy:         -219.15048282 Eh           -5963.38781 eV
Two Electron Energy:           72.36234913 Eh            1969.07963 eV

Virial components:
Potential Energy   :         -230.20361022 Eh           -6264.15870 eV
Kinetic Energy     :          114.66941373 Eh            3120.31338 eV
Virial Ratio       :            2.00754153


DFT components:
N(Alpha)           :        8.999998520279 electrons
N(Beta)            :        8.999998520279 electrons
N(Total)           :       17.999997040558 electrons
E(XC)              :      -10.525990718105 Eh       

---------------
SCF CONVERGENCE
---------------

  Last Energy change         ...   -2.2672e-08  Tolerance :   1.0000e-06
  Last MAX-Density change    ...    3.8112e-05  Tolerance :   1.0000e-05
  Last RMS-Density change    ...    3.3679e-06  Tolerance :   1.0000e-06
  Last DIIS Error            ...    2.4183e-05  Tolerance :   1.0000e-06

             **** THE GBW FILE WAS UPDATED (Scan_20.gbw) ****
             **** DENSITY FILE WAS UPDATED (Scan_20.scfp.tmp) ****
             **** ENERGY FILE WAS UPDATED (Scan_20.en.tmp) ****
----------------
ORBITAL ENERGIES
----------------

  NO   OCC          E(Eh)            E(eV) 
   0   2.0000     -19.206728      -522.6416 
   1   2.0000     -10.368595      -282.1438 
   2   2.0000      -1.004480       -27.3333 
   3   2.0000      -0.832527       -22.6542 
   4   2.0000      -0.565236       -15.3808 
   5   2.0000      -0.563496       -15.3335 
   6   2.0000      -0.473813       -12.8931 
   7   2.0000      -0.342850        -9.3294 
   8   2.0000      -0.328974        -8.9518 
   9   0.0000      -0.025782        -0.7016 
  10   0.0000       0.186843         5.0843 
  11   0.0000       0.247174         6.7259 
  12   0.0000       0.250347         6.8123 
  13   0.0000       0.254253         6.9186 
  14   0.0000       0.604936        16.4611 
  15   0.0000       0.612047        16.6546 
  16   0.0000       0.655427        17.8351 
  17   0.0000       0.792428        21.5631 
  18   0.0000       0.978024        26.6134 
  19   0.0000       0.986629        26.8475 
  20   0.0000       1.005856        27.3707 
  21   0.0000       1.059790        28.8383 
  22   0.0000       1.070294        29.1242 
  23   0.0000       1.105472        30.0814 
  24   0.0000       1.269515        34.5453 
  25   0.0000       1.570461        42.7344 
  26   0.0000       1.718353        46.7588 
  27   0.0000       1.719064        46.7781 
  28   0.0000       1.921980        52.2997 
  29   0.0000       1.927782        52.4576 
  30   0.0000       1.977321        53.8056 
  31   0.0000       2.037875        55.4534 
  32   0.0000       2.131628        58.0045 
  33   0.0000       2.269426        61.7542 
  34   0.0000       2.273421        61.8629 
  35   0.0000       2.642037        71.8935 

                    ********************************
                    * MULLIKEN POPULATION ANALYSIS *
                    ********************************

-----------------------
MULLIKEN ATOMIC CHARGES
-----------------------
   0 C :   -0.414199
   1 O :   -0.677224
   2 H :    0.231248
   3 H :    0.231300
   4 H :    0.244969
   5 H :    0.383906
Sum of atomic charges:    0.0000000

--------------------------------
MULLIKEN REDUCED ORBITAL CHARGES
--------------------------------
  0 C s       :     3.419864  s :     3.419864
      pz      :     1.134100  p :     2.971341
      px      :     0.704633
      py      :     1.132609
      dz2     :     0.007884  d :     0.022994
      dxz     :     0.000406
      dyz     :     0.008169
      dx2y2   :     0.006145
      dxy     :     0.000389
  1 O s       :     3.947525  s :     3.947525
      pz      :     1.684658  p :     4.713494
      px      :     1.289966
      py      :     1.738870
      dz2     :     0.002332  d :     0.016205
      dxz     :     0.001685
      dyz     :     0.008838
      dx2y2   :     0.001965
      dxy     :     0.001386
  2 H s       :     0.768752  s :     0.768752
  3 H s       :     0.768700  s :     0.768700
  4 H s       :     0.755031  s :     0.755031
  5 H s       :     0.616094  s :     0.616094


                     *******************************
                     * LOEWDIN POPULATION ANALYSIS *
                     *******************************

----------------------
LOEWDIN ATOMIC CHARGES
----------------------
   0 C :   -0.227562
   1 O :   -0.564040
   2 H :    0.168312
   3 H :    0.168368
   4 H :    0.175601
   5 H :    0.279321

-------------------------------
LOEWDIN REDUCED ORBITAL CHARGES
-------------------------------
  0 C s       :     3.118945  s :     3.118945
      pz      :     1.179068  p :     3.071692
      px      :     0.714101
      py      :     1.178523
      dz2     :     0.013008  d :     0.036925
      dxz     :     0.000496
      dyz     :     0.014259
      dx2y2   :     0.008688
      dxy     :     0.000473
  1 O s       :     3.786498  s :     3.786498
      pz      :     1.706597  p :     4.755682
      px      :     1.292151
      py      :     1.756933
      dz2     :     0.002869  d :     0.021860
      dxz     :     0.002207
      dyz     :     0.012058
      dx2y2   :     0.002905
      dxy     :     0.001821
  2 H s       :     0.831688  s :     0.831688
  3 H s       :     0.831632  s :     0.831632
  4 H s       :     0.824399  s :     0.824399
  5 H s       :     0.720679  s :     0.720679


                      *****************************
                      * MAYER POPULATION ANALYSIS *
                      *****************************

  NA   - Mulliken gross atomic population
  ZA   - Total nuclear charge
  QA   - Mulliken gross atomic charge
  VA   - Mayer's total valence
  BVA  - Mayer's bonded valence
  FA   - Mayer's free valence

  ATOM       NA         ZA         QA         VA         BVA        FA
  0 C      6.4142     6.0000    -0.4142     3.6978     3.6978     0.0000
  1 O      8.6772     8.0000    -0.6772     1.7268     1.7268    -0.0000
  2 H      0.7688     1.0000     0.2312     0.9186     0.9186     0.0000
  3 H      0.7687     1.0000     0.2313     0.9185     0.9185     0.0000
  4 H      0.7550     1.0000     0.2450     0.9161     0.9161     0.0000
  5 H      0.6161     1.0000     0.3839     0.8099     0.8099    -0.0000

  Mayer bond orders larger than 0.1
B(  0-C ,  1-O ) :   0.9171 B(  0-C ,  2-H ) :   0.9273 B(  0-C ,  3-H ) :   0.9271 
B(  0-C ,  4-H ) :   0.9256 B(  1-O ,  5-H ) :   0.8092 

-------
TIMINGS
-------

Total SCF time: 0 days 0 hours 0 min 5 sec 

Total time                  ....       5.561 sec
Sum of individual times     ....       5.381 sec  ( 96.8%)

Fock matrix formation       ....       4.876 sec  ( 87.7%)
  XC integration            ....       1.248 sec  ( 25.6% of F)
    Basis function eval.    ....       0.463 sec  ( 37.1% of XC)
    Density eval.           ....       0.063 sec  (  5.1% of XC)
    XC-Functional eval.     ....       0.329 sec  ( 26.4% of XC)
    XC-Potential eval.      ....       0.056 sec  (  4.5% of XC)
Diagonalization             ....       0.045 sec  (  0.8%)
Density matrix formation    ....       0.000 sec  (  0.0%)
Population analysis         ....       0.012 sec  (  0.2%)
Initial guess               ....       0.163 sec  (  2.9%)
Orbital Transformation      ....       0.000 sec  (  0.0%)
Orbital Orthonormalization  ....       0.000 sec  (  0.0%)
DIIS solution               ....       0.000 sec  (  0.0%)
Grid generation             ....       0.285 sec  (  5.1%)


-------------------------------------------------------------------------------
                          DFT DISPERSION CORRECTION                            
                                                                               
                              DFTD3 V3.1  Rev 1                                
                              USING zero damping                               
-------------------------------------------------------------------------------
The omegaB97X-D3 functional is recognized. Fit by Chai et al.
Active option DFTDOPT                   ...         3   

molecular C6(AA) [au] = 243.424517 


            DFT-D V3
 parameters
 s6 scaling factor         :     1.0000 
 rs6 scaling factor        :     1.2810 
 s8 scaling factor         :     1.0000 
 rs8 scaling factor        :     1.0940 
 Damping factor alpha6     :    14.0000 
 Damping factor alpha8     :    16.0000 
 ad hoc parameters k1-k3   :    16.0000     1.3333    -4.0000 

 Edisp/kcal,au: -0.461504455527  -0.000735454085 
 E6   /kcal   :  -0.114889365 
 E8   /kcal   :  -0.346615090 
 % E8         :  75.105469926 

-------------------------   ----------------
Dispersion correction           -0.000735454
-------------------------   ----------------


-------------------------   --------------------
FINAL SINGLE POINT ENERGY      -115.534931937995
-------------------------   --------------------


                            ***************************************
                            *     ORCA property calculations      *
                            ***************************************

                                    ---------------------
                                    Active property flags
                                    ---------------------
   (+) Dipole Moment


------------------------------------------------------------------------------
                       ORCA ELECTRIC PROPERTIES CALCULATION
------------------------------------------------------------------------------

Dipole Moment Calculation                       ... on
Quadrupole Moment Calculation                   ... off
Polarizability Calculation                      ... off
GBWName                                         ... Scan_20.gbw
Electron density file                           ... Scan_20.scfp.tmp

-------------
DIPOLE MOMENT
-------------
                                X             Y             Z
Electronic contribution:      1.16781      -0.18369      -0.20905
Nuclear contribution   :     -2.40839       0.64439       0.72263
                        -----------------------------------------
Total Dipole Moment    :     -1.24057       0.46070       0.51357
                        -----------------------------------------
Magnitude (a.u.)       :      1.41951
Magnitude (Debye)      :      3.60812


Timings for individual modules:

Sum of individual times         ...        6.022 sec (=   0.100 min)
GTO integral calculation        ...        0.415 sec (=   0.007 min)   6.9 %
SCF iterations                  ...        5.607 sec (=   0.093 min)  93.1 %
                             ****ORCA TERMINATED NORMALLY****
TOTAL RUN TIME: 0 days 0 hours 0 minutes 6 seconds 428 msec
