
                                 *****************
                                 * O   R   C   A *
                                 *****************

           --- An Ab Initio, DFT and Semiempirical electronic structure package ---

                  #######################################################
                  #                        -***-                        #
                  #  Department of molecular theory and spectroscopy    #
                  #              Directorship: Frank Neese              #
                  # Max Planck Institute for Chemical Energy Conversion #
                  #                  D-45470 Muelheim/Ruhr              #
                  #                       Germany                       #
                  #                                                     #
                  #                  All rights reserved                #
                  #                        -***-                        #
                  #######################################################


                         Program Version 4.0.0.2 - RELEASE -


 With contributions from (in alphabetic order):
   Daniel Aravena         : Magnetic Properties
   Michael Atanasov       : Ab Initio Ligand Field Theory
   Ute Becker             : Parallelization
   Martin Brehm           : Molecular dynamics
   Dmytro Bykov           : SCF Hessian
   Vijay G. Chilkuri      : MRCI spin determinant printing
   Dipayan Datta          : RHF DLPNO-CCSD density
   Achintya Kumar Dutta   : EOM-CC, STEOM-CC
   Dmitry Ganyushin       : Spin-Orbit,Spin-Spin,Magnetic field MRCI
   Yang Guo               : DLPNO-NEVPT2, CIM, IAO-localization
   Andreas Hansen         : Spin unrestricted coupled pair/coupled cluster methods
   Lee Huntington         : MR-EOM, pCC
   Robert Izsak           : Overlap fitted RIJCOSX, COSX-SCS-MP3, EOM
   Christian Kollmar      : KDIIS, OOCD, Brueckner-CCSD(T), CCSD density
   Simone Kossmann        : Meta GGA functionals, TD-DFT gradient, OOMP2, MP2 Hessian
   Martin Krupicka        : AUTO-CI
   Dagmar Lenk            : GEPOL surface
   Dimitrios Liakos       : Extrapolation schemes; parallel MDCI
   Dimitrios Manganas     : ROCIS; embedding schemes
   Dimitrios Pantazis     : SARC Basis sets
   Taras Petrenko         : DFT Hessian,TD-DFT gradient, ASA, ECA, R-Raman, ABS, FL, XAS/XES, NRVS
   Peter Pinski           : DLPNO-MP2
   Christoph Reimann      : Effective Core Potentials
   Marius Retegan         : Local ZFS, SOC
   Christoph Riplinger    : Optimizer, TS searches, QM/MM, DLPNO-CCSD(T), (RO)-DLPNO pert. Triples
   Tobias Risthaus        : Range-separated hybrids, TD-DFT gradient, RPA, STAB
   Michael Roemelt        : Restricted open shell CIS
   Masaaki Saitow         : Open-shell DLPNO
   Barbara Sandhoefer     : DKH picture change effects
   Kantharuban Sivalingam : CASSCF convergence, NEVPT2, FIC-MRCI
   Georgi Stoychev        : AutoAux
   Boris Wezisla          : Elementary symmetry handling
   Frank Wennmohs         : Technical directorship


 We gratefully acknowledge several colleagues who have allowed us to
 interface, adapt or use parts of their codes:
   Stefan Grimme, W. Hujo, H. Kruse,             : VdW corrections, initial TS optimization,
                  C. Bannwarth                     DFT functionals, gCP, sTDA/sTD-DF
   Ed Valeev                                     : LibInt (2-el integral package), F12 methods
   Garnet Chan, S. Sharma, J. Yang, R. Olivares  : DMRG
   Ulf Ekstrom                                   : XCFun DFT Library
   Mihaly Kallay                                 : mrcc  (arbitrary order and MRCC methods)
   Jiri Pittner, Ondrej Demel                    : Mk-CCSD
   Frank Weinhold                                : gennbo (NPA and NBO analysis)
   Christopher J. Cramer and Donald G. Truhlar   : smd solvation model


 Your calculation uses the libint2 library for the computation of 2-el integrals
 For citations please refer to: http://libint.valeyev.net

 This ORCA versions uses:
   CBLAS   interface :  Fast vector & matrix operations
   LAPACKE interface :  Fast linear algebra routines
   SCALAPACK package :  Parallel linear algebra routines


Your calculation utilizes the atom-pairwise dispersion correction
with the zero-damping scheme (D30)
Cite in your paper:
S.Grimme, J.Antony, S.Ehrlich and H.Krieg, J.Chem.Phys., 132, (2010), 154104 
   

XCFun DFT library Copyright 2009-2010 Ulf Ekstrom and contributors.
See http://admol.org/xcfun for more information. This is free soft-
ware; see the source code for copying conditions. There is ABSOLUTELY
NO WARRANTY; not even for MERCHANTABILITY or FITNESS FOR A PARTICULAR
PURPOSE. For details see the documentation. Scientific users of this 
library should cite U. Ekstrom, L. Visscher, R. Bast, A. J. Thorvald-
sen and K. Ruud; J.Chem.Theor.Comp. 2010, DOI: 10.1021/ct100117s
XCFun Version 0.99 
Your calculation utilizes the basis: 6-31G(d)
   H-He, Li-Ne : W. J. Hehre, R. Ditchfield and J.A. Pople, J. Chem. Phys. 56, 2257 (1972).
                 Note: He and Ne are unpublished basis sets taken from the Gaussian program.
                 Note: Li and B from J. D. Dill and J. A. Pople, J. Chem. Phys. 62, 2921 (1975).
   Na - Ar     : M. M. Francl, W. J. Pietro, W. J. Hehre, J. S. Binkley, M. S. Gordon, 
                 D. J. DeFrees and J. A. Pople, J. Chem. Phys. 77, 3654 (1982).
   K - Zn      : V. A. Rassolov, J. A. Pople, M. A. Ratner, and T. L. Windus, J. Chem. Phys. 109, 1223 (1998).

================================================================================
                                        WARNINGS
                       Please study these warnings very carefully!
================================================================================

Warning: TCutStore was < 0. Adjusted to Thresh (uncritical)

INFO   : the flag for use of LIBINT has been found!

================================================================================
                                       INPUT FILE
================================================================================
NAME = initial22.inp
|  1> ! WB97X-D3 6-31G(d) VerySlowConv
|  2> ! KDIIS NOSOSCF
|  3> %base "Scan_22"
|  4> 
|  5> %scf
|  6> maxiter 999
|  7> end
|  8> 
|  9> * xyz 0 1
| 10> C         -4.574675651589    2.350099647536    0.046098585331
| 11> O         -1.956388274974    2.241912488860   -0.087235951853
| 12> H         -4.554499865777    3.394685671158   -0.184324478424
| 13> H         -4.547729146623    2.020539209679    1.063608101610
| 14> H         -4.601334050566    1.631112792655   -0.745460794177
| 15> H         -1.652483010470    2.853280190112    0.584314537513
| 16> **                         ****END OF INPUT****
================================================================================

                       ****************************
                       * Single Point Calculation *
                       ****************************

---------------------------------
CARTESIAN COORDINATES (ANGSTROEM)
---------------------------------
  C     -4.574676    2.350100    0.046099
  O     -1.956388    2.241912   -0.087236
  H     -4.554500    3.394686   -0.184324
  H     -4.547729    2.020539    1.063608
  H     -4.601334    1.631113   -0.745461
  H     -1.652483    2.853280    0.584315

----------------------------
CARTESIAN COORDINATES (A.U.)
----------------------------
  NO LB      ZA    FRAG     MASS         X           Y           Z
   0 C     6.0000    0    12.011   -8.644884    4.441045    0.087114
   1 O     8.0000    0    15.999   -3.697038    4.236601   -0.164852
   2 H     1.0000    0     1.008   -8.606757    6.415026   -0.348323
   3 H     1.0000    0     1.008   -8.593963    3.818266    2.009928
   4 H     1.0000    0     1.008   -8.695261    3.082356   -1.408717
   5 H     1.0000    0     1.008   -3.122740    5.391918    1.104194

--------------------------------
INTERNAL COORDINATES (ANGSTROEM)
--------------------------------
 C      0   0   0     0.000000000000     0.00000000     0.00000000
 O      1   0   0     2.623911459377     0.00000000     0.00000000
 H      1   2   0     1.069888691122    90.60130767     0.00000000
 H      1   2   3     1.069888691429    90.60130406   239.65102942
 H      1   2   3     1.069681737254    87.68185632   119.82551485
 H      2   1   3     0.957658047371   104.75617782    60.17443902

---------------------------
INTERNAL COORDINATES (A.U.)
---------------------------
 C      0   0   0     0.000000000000     0.00000000     0.00000000
 O      1   0   0     4.958474057880     0.00000000     0.00000000
 H      1   2   0     2.021796619999    90.60130767     0.00000000
 H      1   2   3     2.021796620581    90.60130406   239.65102942
 H      1   2   3     2.021405533867    87.68185632   119.82551485
 H      2   1   3     1.809711439478   104.75617782    60.17443902

---------------------
BASIS SET INFORMATION
---------------------
There are 3 groups of distinct atoms

 Group   1 Type C   : 10s4p1d contracted to 3s2p1d pattern {631/31/1}
 Group   2 Type O   : 10s4p1d contracted to 3s2p1d pattern {631/31/1}
 Group   3 Type H   : 4s contracted to 2s pattern {31}

Atom   0C    basis set group =>   1
Atom   1O    basis set group =>   2
Atom   2H    basis set group =>   3
Atom   3H    basis set group =>   3
Atom   4H    basis set group =>   3
Atom   5H    basis set group =>   3
------------------------------------------------------------------------------
                           ORCA GTO INTEGRAL CALCULATION
------------------------------------------------------------------------------

                         BASIS SET STATISTICS AND STARTUP INFO

 # of primitive gaussian shells          ...   46
 # of primitive gaussian functions       ...   70
 # of contracted shells                  ...   20
 # of contracted basis functions         ...   36
 Highest angular momentum                ...    2
 Maximum contraction depth               ...    6
 Integral package used                   ... LIBINT
 Integral threshhold            Thresh   ...  1.000e-10
 Primitive cut-off              TCut     ...  1.000e-11


------------------------------ INTEGRAL EVALUATION ----------------------------


 * One electron integrals 
 Pre-screening matrix                    ... done
 Shell pair data                         ... done (   0.000 sec)

-------------------------------------------------------------------------------
                                 ORCA SCF
-------------------------------------------------------------------------------

------------
SCF SETTINGS
------------
Hamiltonian:
 Density Functional     Method          .... DFT(GTOs)
 Exchange Functional    Exchange        .... WB97X-D3
 Correlation Functional Correlation     .... WB97X-D3
 Gradients option       PostSCFGGA      .... off
 Hybrid DFT is turned on
   Fraction HF Exchange ScalHFX         ....  0.195728
   Scaling of DF-GGA-X  ScalDFX         ....  0.000000
   Scaling of DF-GGA-C  ScalDFC         ....  1.000000
   Scaling of DF-LDA-C  ScalLDAC        ....  1.000000
   Perturbative correction              ....  0.000000
 Long-range corrected/Screened/Range-Separated Hybrid DFT is turned on
   Amount of maximum screened exact exchange              ....  0.804272
   Range separation parameter mu (erf(mu*r12)/r12)        ....  0.250000


General Settings:
 Integral files         IntName         .... Scan_22
 Hartree-Fock type      HFTyp           .... RHF
 Total Charge           Charge          ....    0
 Multiplicity           Mult            ....    1
 Number of Electrons    NEL             ....   18
 Basis Dimension        Dim             ....   36
 Nuclear Repulsion      ENuc            ....     29.9075009327 Eh

Convergence Acceleration:
 DIIS                   CNVDIIS         .... on
   Start iteration      DIISMaxIt       ....     0
   Startup error        DIISStart       ....  0.200000
   # of expansion vecs  DIISMaxEq       ....     5
   Bias factor          DIISBfac        ....   1.050
   Max. coefficient     DIISMaxC        ....  10.000
 Newton-Raphson         CNVNR           .... off
 SOSCF                  CNVSOSCF        .... off
 Level Shifting         CNVShift        .... off
 Zerner damping         CNVZerner       .... off
 Static damping         CNVDamp         .... off
 Fernandez-Rico         CNVRico         .... off

SCF Procedure:
 Maximum # iterations   MaxIter         ....   999
 SCF integral mode      SCFMode         .... Direct
   Integral package                     .... LIBINT
 Reset frequeny         DirectResetFreq ....    20
 Integral Threshold     Thresh          ....  1.000e-10 Eh
 Primitive CutOff       TCut            ....  1.000e-11 Eh

Convergence Tolerance:
 Convergence Check Mode ConvCheckMode   .... All-Criteria
 Convergence forced     ConvForced      .... 0
 Energy Change          TolE            ....  1.000e-06 Eh
 Max Density Change     TolMaxP         ....  1.000e-05
 RMS Density Change     TolRMSP         ....  1.000e-06
 DIIS Error             TolErr          ....  1.000e-06


Diagonalization of the overlap matrix:
Smallest eigenvalue                        ... 2.838e-02
Time for diagonalization                   ...    0.001 sec
Threshold for overlap eigenvalues          ... 1.000e-08
Number of eigenvalues below threshold      ... 0
Time for construction of square roots      ...    0.007 sec
Total time needed                          ...    0.008 sec

-------------------
DFT GRID GENERATION
-------------------

General Integration Accuracy     IntAcc      ...  4.340
Radial Grid Type                 RadialGrid  ... Gauss-Chebyshev
Angular Grid (max. acc.)         AngularGrid ... Lebedev-110
Angular grid pruning method      GridPruning ... 3 (G Style)
Weight generation scheme         WeightScheme... Becke
Basis function cutoff            BFCut       ...    1.0000e-10
Integration weight cutoff        WCut        ...    1.0000e-14
Grids for H and He will be reduced by one unit

# of grid points (after initial pruning)     ...   6548 (   0.0 sec)
# of grid points (after weights+screening)   ...   6411 (   0.0 sec)
nearest neighbour list constructed           ...    0.0 sec
Grid point re-assignment to atoms done       ...    0.0 sec
Grid point division into batches done        ...    0.0 sec
Reduced shell lists constructed in    0.0 sec

Total number of grid points                  ...     6411
Total number of batches                      ...      104
Average number of points per batch           ...       61
Average number of grid points per atom       ...     1068
Average number of shells per batch           ...    16.86 (84.29%)
Average number of basis functions per batch  ...    30.80 (85.56%)
Average number of large shells per batch     ...    14.07 (83.45%)
Average number of large basis fcns per batch ...    25.34 (82.28%)
Maximum spatial batch extension              ...  20.53, 21.59, 21.59 au
Average spatial batch extension              ...   5.28,  4.65,  4.73 au

Time for grid setup =    0.051 sec

------------------------------
INITIAL GUESS: MODEL POTENTIAL
------------------------------
Loading Hartree-Fock densities                     ... done
Calculating cut-offs                               ... done
Setting up the integral package                    ... done
Initializing the effective Hamiltonian             ... done
Starting the Coulomb interaction                   ... done (   0.0 sec)
Reading the grid                                   ... done
Mapping shells                                     ... done
Starting the XC term evaluation                    ... done (   0.0 sec)
  promolecular density results
     # of electrons  =     17.998478780
     EX              =    -14.312840504
     EC              =     -0.543885487
     EX+EC           =    -14.856725991
Transforming the Hamiltonian                       ... done (   0.0 sec)
Diagonalizing the Hamiltonian                      ... done (   0.0 sec)
Back transforming the eigenvectors                 ... done (   0.0 sec)
Now organizing SCF variables                       ... done
                      ------------------
                      INITIAL GUESS DONE (   0.2 sec)
                      ------------------
--------------
SCF ITERATIONS
--------------
ITER       Energy         Delta-E        Max-DP      RMS-DP      [F,P]   Gradient Norm
               ***  Starting incremental Fock matrix formation  ***
                             ****Resetting KDIIS****
                             ****Turning on KDIIS(Cayley)****
  0   -115.2615598961   0.000000000000 0.06459547  0.00373687  0.1825467   0.161798532
  1   -115.3423187664  -0.080758870257 0.04880776  0.00298848  0.1354759   0.122968600
  2   -115.3952756146  -0.052956848188 0.10755286  0.00639511  0.1197140   0.097303311
  3   -115.4728745900  -0.077598975452 0.20937781  0.01111795  0.0767297   0.049782367
  4   -115.4845370768  -0.011662486743 0.13856515  0.00821946  0.0785473   0.048306553
  5   -115.4960891980  -0.011552121205 0.01970140  0.00133188  0.0447648   0.018114740
  6   -115.4993986557  -0.003309457736 0.01835130  0.00164596  0.0323890   0.011255776
  7   -115.5008742223  -0.001475566617 0.02876859  0.00243690  0.0247817   0.009701733
  8   -115.5044431601  -0.003568937834 0.02054582  0.00149224  0.0111133   0.004368051
  9   -115.5051182507  -0.000675090558 0.00270574  0.00025168  0.0006629   0.000499486
 10   -115.5051240609  -0.000005810230 0.00040654  0.00004302  0.0003818   0.000249752
                          ***Energy convergence achieved***
 11   -115.5051247126  -0.000000651635 0.00004415  0.00000600  0.0000298   0.000019742

            ***Energy convergence in two consecutive cycles with***
                    ***'reasonable' density convergence***
                       *** signaling convergence ***

                    *** KDIIS BlockDiag ( 0.000 sec) ***

               *****************************************************
               *                     SUCCESS                       *
               *           SCF CONVERGED AFTER  12 CYCLES          *
               *****************************************************

Setting up the final grid:

General Integration Accuracy     IntAcc      ...  4.670
Radial Grid Type                 RadialGrid  ... Gauss-Chebyshev
Angular Grid (max. acc.)         AngularGrid ... Lebedev-302
Angular grid pruning method      GridPruning ... 3 (G Style)
Weight generation scheme         WeightScheme... Becke
Basis function cutoff            BFCut       ...    1.0000e-10
Integration weight cutoff        WCut        ...    1.0000e-14
Grids for H and He will be reduced by one unit

# of grid points (after initial pruning)     ...  26000 (   0.0 sec)
# of grid points (after weights+screening)   ...  25330 (   0.0 sec)
nearest neighbour list constructed           ...    0.0 sec
Grid point re-assignment to atoms done       ...    0.0 sec
Grid point division into batches done        ...    0.1 sec
Reduced shell lists constructed in    0.2 sec

Total number of grid points                  ...    25330
Total number of batches                      ...      400
Average number of points per batch           ...       63
Average number of grid points per atom       ...     4222
Average number of shells per batch           ...    15.28 (76.38%)
Average number of basis functions per batch  ...    27.96 (77.67%)
Average number of large shells per batch     ...    12.71 (83.17%)
Average number of large basis fcns per batch ...    22.63 (80.92%)
Maximum spatial batch extension              ...  19.44, 20.64, 20.64 au
Average spatial batch extension              ...   3.18,  3.07,  3.02 au

Final grid set up in    0.2 sec
Final integration                            ... done (   0.2 sec)
Change in XC energy                          ...    -0.000060708
Integrated number of electrons               ...    17.999976186
Previous integrated no of electrons          ...    17.999978521

----------------
TOTAL SCF ENERGY
----------------

Total Energy       :         -115.50518543 Eh           -3143.05589 eV

Components:
Nuclear Repulsion  :           29.90750093 Eh             813.82447 eV
Electronic Energy  :         -145.41268637 Eh           -3956.88036 eV
One Electron Energy:         -216.44486061 Eh           -5889.76409 eV
Two Electron Energy:           71.03217425 Eh            1932.88373 eV

Virial components:
Potential Energy   :         -230.19548831 Eh           -6263.93769 eV
Kinetic Energy     :          114.69030288 Eh            3120.88180 eV
Virial Ratio       :            2.00710507


DFT components:
N(Alpha)           :        8.999988092875 electrons
N(Beta)            :        8.999988092875 electrons
N(Total)           :       17.999976185751 electrons
E(XC)              :      -10.519863160091 Eh       

---------------
SCF CONVERGENCE
---------------

  Last Energy change         ...   -1.2106e-08  Tolerance :   1.0000e-06
  Last MAX-Density change    ...    2.9220e-05  Tolerance :   1.0000e-05
  Last RMS-Density change    ...    3.0882e-06  Tolerance :   1.0000e-06
  Last DIIS Error            ...    1.2768e-05  Tolerance :   1.0000e-06

             **** THE GBW FILE WAS UPDATED (Scan_22.gbw) ****
             **** DENSITY FILE WAS UPDATED (Scan_22.scfp.tmp) ****
             **** ENERGY FILE WAS UPDATED (Scan_22.en.tmp) ****
----------------
ORBITAL ENERGIES
----------------

  NO   OCC          E(Eh)            E(eV) 
   0   2.0000     -19.199917      -522.4563 
   1   2.0000     -10.374927      -282.3161 
   2   2.0000      -0.996997       -27.1297 
   3   2.0000      -0.838838       -22.8259 
   4   2.0000      -0.571290       -15.5456 
   5   2.0000      -0.569326       -15.4922 
   6   2.0000      -0.467739       -12.7278 
   7   2.0000      -0.323953        -8.8152 
   8   2.0000      -0.323006        -8.7894 
   9   0.0000      -0.052906        -1.4396 
  10   0.0000       0.186218         5.0672 
  11   0.0000       0.246635         6.7113 
  12   0.0000       0.247080         6.7234 
  13   0.0000       0.250876         6.8267 
  14   0.0000       0.598002        16.2725 
  15   0.0000       0.604881        16.4597 
  16   0.0000       0.652323        17.7506 
  17   0.0000       0.752851        20.4861 
  18   0.0000       0.977824        26.6080 
  19   0.0000       0.982931        26.7469 
  20   0.0000       1.003594        27.3092 
  21   0.0000       1.036827        28.2135 
  22   0.0000       1.070222        29.1222 
  23   0.0000       1.104962        30.0675 
  24   0.0000       1.268234        34.5104 
  25   0.0000       1.519642        41.3516 
  26   0.0000       1.708324        46.4859 
  27   0.0000       1.709256        46.5112 
  28   0.0000       1.927321        52.4451 
  29   0.0000       1.932956        52.5984 
  30   0.0000       1.980703        53.8977 
  31   0.0000       2.025772        55.1241 
  32   0.0000       2.100375        57.1541 
  33   0.0000       2.253238        61.3137 
  34   0.0000       2.257202        61.4216 
  35   0.0000       2.643573        71.9353 

                    ********************************
                    * MULLIKEN POPULATION ANALYSIS *
                    ********************************

-----------------------
MULLIKEN ATOMIC CHARGES
-----------------------
   0 C :   -0.424024
   1 O :   -0.685584
   2 H :    0.238291
   3 H :    0.238286
   4 H :    0.251277
   5 H :    0.381753
Sum of atomic charges:    0.0000000

--------------------------------
MULLIKEN REDUCED ORBITAL CHARGES
--------------------------------
  0 C s       :     3.425778  s :     3.425778
      pz      :     1.142353  p :     2.976007
      px      :     0.692754
      py      :     1.140901
      dz2     :     0.007751  d :     0.022239
      dxz     :     0.000063
      dyz     :     0.008448
      dx2y2   :     0.005917
      dxy     :     0.000060
  1 O s       :     3.949986  s :     3.949986
      pz      :     1.685913  p :     4.719843
      px      :     1.293799
      py      :     1.740132
      dz2     :     0.002053  d :     0.015754
      dxz     :     0.002198
      dyz     :     0.008236
      dx2y2   :     0.001446
      dxy     :     0.001821
  2 H s       :     0.761709  s :     0.761709
  3 H s       :     0.761714  s :     0.761714
  4 H s       :     0.748723  s :     0.748723
  5 H s       :     0.618247  s :     0.618247


                     *******************************
                     * LOEWDIN POPULATION ANALYSIS *
                     *******************************

----------------------
LOEWDIN ATOMIC CHARGES
----------------------
   0 C :   -0.226195
   1 O :   -0.576691
   2 H :    0.173059
   3 H :    0.173107
   4 H :    0.179467
   5 H :    0.277253

-------------------------------
LOEWDIN REDUCED ORBITAL CHARGES
-------------------------------
  0 C s       :     3.127298  s :     3.127298
      pz      :     1.183482  p :     3.063519
      px      :     0.697190
      py      :     1.182847
      dz2     :     0.012643  d :     0.035378
      dxz     :     0.000078
      dyz     :     0.014544
      dx2y2   :     0.008037
      dxy     :     0.000075
  1 O s       :     3.793368  s :     3.793368
      pz      :     1.707740  p :     4.762085
      px      :     1.296146
      py      :     1.758200
      dz2     :     0.002453  d :     0.021237
      dxz     :     0.002987
      dyz     :     0.011239
      dx2y2   :     0.002084
      dxy     :     0.002476
  2 H s       :     0.826941  s :     0.826941
  3 H s       :     0.826893  s :     0.826893
  4 H s       :     0.820533  s :     0.820533
  5 H s       :     0.722747  s :     0.722747


                      *****************************
                      * MAYER POPULATION ANALYSIS *
                      *****************************

  NA   - Mulliken gross atomic population
  ZA   - Total nuclear charge
  QA   - Mulliken gross atomic charge
  VA   - Mayer's total valence
  BVA  - Mayer's bonded valence
  FA   - Mayer's free valence

  ATOM       NA         ZA         QA         VA         BVA        FA
  0 C      6.4240     6.0000    -0.4240     3.6802     3.6802    -0.0000
  1 O      8.6856     8.0000    -0.6856     1.7215     1.7215     0.0000
  2 H      0.7617     1.0000     0.2383     0.9174     0.9174    -0.0000
  3 H      0.7617     1.0000     0.2383     0.9173     0.9173    -0.0000
  4 H      0.7487     1.0000     0.2513     0.9138     0.9138    -0.0000
  5 H      0.6182     1.0000     0.3818     0.8125     0.8125     0.0000

  Mayer bond orders larger than 0.1
B(  0-C ,  1-O ) :   0.9072 B(  0-C ,  2-H ) :   0.9249 B(  0-C ,  3-H ) :   0.9247 
B(  0-C ,  4-H ) :   0.9221 B(  1-O ,  5-H ) :   0.8111 

-------
TIMINGS
-------

Total SCF time: 0 days 0 hours 0 min 4 sec 

Total time                  ....       4.675 sec
Sum of individual times     ....       4.494 sec  ( 96.1%)

Fock matrix formation       ....       4.007 sec  ( 85.7%)
  XC integration            ....       1.259 sec  ( 31.4% of F)
    Basis function eval.    ....       0.459 sec  ( 36.4% of XC)
    Density eval.           ....       0.065 sec  (  5.2% of XC)
    XC-Functional eval.     ....       0.348 sec  ( 27.6% of XC)
    XC-Potential eval.      ....       0.055 sec  (  4.3% of XC)
Diagonalization             ....       0.040 sec  (  0.9%)
Density matrix formation    ....       0.000 sec  (  0.0%)
Population analysis         ....       0.017 sec  (  0.4%)
Initial guess               ....       0.150 sec  (  3.2%)
Orbital Transformation      ....       0.000 sec  (  0.0%)
Orbital Orthonormalization  ....       0.000 sec  (  0.0%)
DIIS solution               ....       0.000 sec  (  0.0%)
Grid generation             ....       0.280 sec  (  6.0%)


-------------------------------------------------------------------------------
                          DFT DISPERSION CORRECTION                            
                                                                               
                              DFTD3 V3.1  Rev 1                                
                              USING zero damping                               
-------------------------------------------------------------------------------
The omegaB97X-D3 functional is recognized. Fit by Chai et al.
Active option DFTDOPT                   ...         3   

molecular C6(AA) [au] = 243.568871 


            DFT-D V3
 parameters
 s6 scaling factor         :     1.0000 
 rs6 scaling factor        :     1.2810 
 s8 scaling factor         :     1.0000 
 rs8 scaling factor        :     1.0940 
 Damping factor alpha6     :    14.0000 
 Damping factor alpha8     :    16.0000 
 ad hoc parameters k1-k3   :    16.0000     1.3333    -4.0000 

 Edisp/kcal,au: -0.495136889229  -0.000789050774 
 E6   /kcal   :  -0.161577860 
 E8   /kcal   :  -0.333559029 
 % E8         :  67.367032438 

-------------------------   ----------------
Dispersion correction           -0.000789051
-------------------------   ----------------


-------------------------   --------------------
FINAL SINGLE POINT ENERGY      -115.505974483432
-------------------------   --------------------


                            ***************************************
                            *     ORCA property calculations      *
                            ***************************************

                                    ---------------------
                                    Active property flags
                                    ---------------------
   (+) Dipole Moment


------------------------------------------------------------------------------
                       ORCA ELECTRIC PROPERTIES CALCULATION
------------------------------------------------------------------------------

Dipole Moment Calculation                       ... on
Quadrupole Moment Calculation                   ... off
Polarizability Calculation                      ... off
GBWName                                         ... Scan_22.gbw
Electron density file                           ... Scan_22.scfp.tmp

-------------
DIPOLE MOMENT
-------------
                                X             Y             Z
Electronic contribution:      1.12377      -0.16473      -0.18793
Nuclear contribution   :     -2.47473       0.61111       0.68634
                        -----------------------------------------
Total Dipole Moment    :     -1.35097       0.44638       0.49841
                        -----------------------------------------
Magnitude (a.u.)       :      1.50757
Magnitude (Debye)      :      3.83194


Timings for individual modules:

Sum of individual times         ...        5.050 sec (=   0.084 min)
GTO integral calculation        ...        0.331 sec (=   0.006 min)   6.6 %
SCF iterations                  ...        4.719 sec (=   0.079 min)  93.4 %
                             ****ORCA TERMINATED NORMALLY****
TOTAL RUN TIME: 0 days 0 hours 0 minutes 5 seconds 428 msec
