
                                 *****************
                                 * O   R   C   A *
                                 *****************

           --- An Ab Initio, DFT and Semiempirical electronic structure package ---

                  #######################################################
                  #                        -***-                        #
                  #  Department of molecular theory and spectroscopy    #
                  #              Directorship: Frank Neese              #
                  # Max Planck Institute for Chemical Energy Conversion #
                  #                  D-45470 Muelheim/Ruhr              #
                  #                       Germany                       #
                  #                                                     #
                  #                  All rights reserved                #
                  #                        -***-                        #
                  #######################################################


                         Program Version 4.0.0.2 - RELEASE -


 With contributions from (in alphabetic order):
   Daniel Aravena         : Magnetic Properties
   Michael Atanasov       : Ab Initio Ligand Field Theory
   Ute Becker             : Parallelization
   Martin Brehm           : Molecular dynamics
   Dmytro Bykov           : SCF Hessian
   Vijay G. Chilkuri      : MRCI spin determinant printing
   Dipayan Datta          : RHF DLPNO-CCSD density
   Achintya Kumar Dutta   : EOM-CC, STEOM-CC
   Dmitry Ganyushin       : Spin-Orbit,Spin-Spin,Magnetic field MRCI
   Yang Guo               : DLPNO-NEVPT2, CIM, IAO-localization
   Andreas Hansen         : Spin unrestricted coupled pair/coupled cluster methods
   Lee Huntington         : MR-EOM, pCC
   Robert Izsak           : Overlap fitted RIJCOSX, COSX-SCS-MP3, EOM
   Christian Kollmar      : KDIIS, OOCD, Brueckner-CCSD(T), CCSD density
   Simone Kossmann        : Meta GGA functionals, TD-DFT gradient, OOMP2, MP2 Hessian
   Martin Krupicka        : AUTO-CI
   Dagmar Lenk            : GEPOL surface
   Dimitrios Liakos       : Extrapolation schemes; parallel MDCI
   Dimitrios Manganas     : ROCIS; embedding schemes
   Dimitrios Pantazis     : SARC Basis sets
   Taras Petrenko         : DFT Hessian,TD-DFT gradient, ASA, ECA, R-Raman, ABS, FL, XAS/XES, NRVS
   Peter Pinski           : DLPNO-MP2
   Christoph Reimann      : Effective Core Potentials
   Marius Retegan         : Local ZFS, SOC
   Christoph Riplinger    : Optimizer, TS searches, QM/MM, DLPNO-CCSD(T), (RO)-DLPNO pert. Triples
   Tobias Risthaus        : Range-separated hybrids, TD-DFT gradient, RPA, STAB
   Michael Roemelt        : Restricted open shell CIS
   Masaaki Saitow         : Open-shell DLPNO
   Barbara Sandhoefer     : DKH picture change effects
   Kantharuban Sivalingam : CASSCF convergence, NEVPT2, FIC-MRCI
   Georgi Stoychev        : AutoAux
   Boris Wezisla          : Elementary symmetry handling
   Frank Wennmohs         : Technical directorship


 We gratefully acknowledge several colleagues who have allowed us to
 interface, adapt or use parts of their codes:
   Stefan Grimme, W. Hujo, H. Kruse,             : VdW corrections, initial TS optimization,
                  C. Bannwarth                     DFT functionals, gCP, sTDA/sTD-DF
   Ed Valeev                                     : LibInt (2-el integral package), F12 methods
   Garnet Chan, S. Sharma, J. Yang, R. Olivares  : DMRG
   Ulf Ekstrom                                   : XCFun DFT Library
   Mihaly Kallay                                 : mrcc  (arbitrary order and MRCC methods)
   Jiri Pittner, Ondrej Demel                    : Mk-CCSD
   Frank Weinhold                                : gennbo (NPA and NBO analysis)
   Christopher J. Cramer and Donald G. Truhlar   : smd solvation model


 Your calculation uses the libint2 library for the computation of 2-el integrals
 For citations please refer to: http://libint.valeyev.net

 This ORCA versions uses:
   CBLAS   interface :  Fast vector & matrix operations
   LAPACKE interface :  Fast linear algebra routines
   SCALAPACK package :  Parallel linear algebra routines


Your calculation utilizes the atom-pairwise dispersion correction
with the zero-damping scheme (D30)
Cite in your paper:
S.Grimme, J.Antony, S.Ehrlich and H.Krieg, J.Chem.Phys., 132, (2010), 154104 
   

XCFun DFT library Copyright 2009-2010 Ulf Ekstrom and contributors.
See http://admol.org/xcfun for more information. This is free soft-
ware; see the source code for copying conditions. There is ABSOLUTELY
NO WARRANTY; not even for MERCHANTABILITY or FITNESS FOR A PARTICULAR
PURPOSE. For details see the documentation. Scientific users of this 
library should cite U. Ekstrom, L. Visscher, R. Bast, A. J. Thorvald-
sen and K. Ruud; J.Chem.Theor.Comp. 2010, DOI: 10.1021/ct100117s
XCFun Version 0.99 
Your calculation utilizes the basis: 6-31G(d)
   H-He, Li-Ne : W. J. Hehre, R. Ditchfield and J.A. Pople, J. Chem. Phys. 56, 2257 (1972).
                 Note: He and Ne are unpublished basis sets taken from the Gaussian program.
                 Note: Li and B from J. D. Dill and J. A. Pople, J. Chem. Phys. 62, 2921 (1975).
   Na - Ar     : M. M. Francl, W. J. Pietro, W. J. Hehre, J. S. Binkley, M. S. Gordon, 
                 D. J. DeFrees and J. A. Pople, J. Chem. Phys. 77, 3654 (1982).
   K - Zn      : V. A. Rassolov, J. A. Pople, M. A. Ratner, and T. L. Windus, J. Chem. Phys. 109, 1223 (1998).

================================================================================
                                        WARNINGS
                       Please study these warnings very carefully!
================================================================================

Warning: TCutStore was < 0. Adjusted to Thresh (uncritical)

INFO   : the flag for use of LIBINT has been found!

================================================================================
                                       INPUT FILE
================================================================================
NAME = initial23.inp
|  1> ! WB97X-D3 6-31G(d) VerySlowConv
|  2> ! KDIIS NOSOSCF
|  3> %base "Scan_23"
|  4> 
|  5> %scf
|  6> maxiter 999
|  7> end
|  8> 
|  9> * xyz 0 1
| 10> C         -4.629007306431    2.345905446946    0.041774976270
| 11> O         -1.899010395009    2.257734282652   -0.070125336924
| 12> H         -4.602429030198    3.390605971509   -0.187831418679
| 13> H         -4.595661838113    2.017181483967    1.059445514878
| 14> H         -4.630645062745    1.626690635938   -0.750171154401
| 15> H         -1.530356367503    2.853512178987    0.583907418856
| 16> **                         ****END OF INPUT****
================================================================================

                       ****************************
                       * Single Point Calculation *
                       ****************************

---------------------------------
CARTESIAN COORDINATES (ANGSTROEM)
---------------------------------
  C     -4.629007    2.345905    0.041775
  O     -1.899010    2.257734   -0.070125
  H     -4.602429    3.390606   -0.187831
  H     -4.595662    2.017181    1.059446
  H     -4.630645    1.626691   -0.750171
  H     -1.530356    2.853512    0.583907

----------------------------
CARTESIAN COORDINATES (A.U.)
----------------------------
  NO LB      ZA    FRAG     MASS         X           Y           Z
   0 C     6.0000    0    12.011   -8.747556    4.433119    0.078943
   1 O     8.0000    0    15.999   -3.588610    4.266499   -0.132518
   2 H     1.0000    0     1.008   -8.697330    6.407317   -0.354950
   3 H     1.0000    0     1.008   -8.684542    3.811921    2.002062
   4 H     1.0000    0     1.008   -8.750651    3.074000   -1.417618
   5 H     1.0000    0     1.008   -2.891954    5.392357    1.103425

--------------------------------
INTERNAL COORDINATES (ANGSTROEM)
--------------------------------
 C      0   0   0     0.000000000000     0.00000000     0.00000000
 O      1   0   0     2.733711574157     0.00000000     0.00000000
 H      1   2   0     1.069964806613    89.87974283     0.00000000
 H      1   2   3     1.069964807480    89.87973950   239.78069053
 H      1   2   3     1.069790306791    87.10778787   119.89034543
 H      2   1   3     0.958444541636   109.64148943    60.10961198

---------------------------
INTERNAL COORDINATES (A.U.)
---------------------------
 C      0   0   0     0.000000000000     0.00000000     0.00000000
 O      1   0   0     5.165966204287     0.00000000     0.00000000
 H      1   2   0     2.021940457433    89.87974283     0.00000000
 H      1   2   3     2.021940459070    89.87973950   239.78069053
 H      1   2   3     2.021610700558    87.10778787   119.89034543
 H      2   1   3     1.811197698243   109.64148943    60.10961198

---------------------
BASIS SET INFORMATION
---------------------
There are 3 groups of distinct atoms

 Group   1 Type C   : 10s4p1d contracted to 3s2p1d pattern {631/31/1}
 Group   2 Type O   : 10s4p1d contracted to 3s2p1d pattern {631/31/1}
 Group   3 Type H   : 4s contracted to 2s pattern {31}

Atom   0C    basis set group =>   1
Atom   1O    basis set group =>   2
Atom   2H    basis set group =>   3
Atom   3H    basis set group =>   3
Atom   4H    basis set group =>   3
Atom   5H    basis set group =>   3
------------------------------------------------------------------------------
                           ORCA GTO INTEGRAL CALCULATION
------------------------------------------------------------------------------

                         BASIS SET STATISTICS AND STARTUP INFO

 # of primitive gaussian shells          ...   46
 # of primitive gaussian functions       ...   70
 # of contracted shells                  ...   20
 # of contracted basis functions         ...   36
 Highest angular momentum                ...    2
 Maximum contraction depth               ...    6
 Integral package used                   ... LIBINT
 Integral threshhold            Thresh   ...  1.000e-10
 Primitive cut-off              TCut     ...  1.000e-11


------------------------------ INTEGRAL EVALUATION ----------------------------


 * One electron integrals 
 Pre-screening matrix                    ... done
 Shell pair data                         ... done (   0.000 sec)

-------------------------------------------------------------------------------
                                 ORCA SCF
-------------------------------------------------------------------------------

------------
SCF SETTINGS
------------
Hamiltonian:
 Density Functional     Method          .... DFT(GTOs)
 Exchange Functional    Exchange        .... WB97X-D3
 Correlation Functional Correlation     .... WB97X-D3
 Gradients option       PostSCFGGA      .... off
 Hybrid DFT is turned on
   Fraction HF Exchange ScalHFX         ....  0.195728
   Scaling of DF-GGA-X  ScalDFX         ....  0.000000
   Scaling of DF-GGA-C  ScalDFC         ....  1.000000
   Scaling of DF-LDA-C  ScalLDAC        ....  1.000000
   Perturbative correction              ....  0.000000
 Long-range corrected/Screened/Range-Separated Hybrid DFT is turned on
   Amount of maximum screened exact exchange              ....  0.804272
   Range separation parameter mu (erf(mu*r12)/r12)        ....  0.250000


General Settings:
 Integral files         IntName         .... Scan_23
 Hartree-Fock type      HFTyp           .... RHF
 Total Charge           Charge          ....    0
 Multiplicity           Mult            ....    1
 Number of Electrons    NEL             ....   18
 Basis Dimension        Dim             ....   36
 Nuclear Repulsion      ENuc            ....     29.2950669595 Eh

Convergence Acceleration:
 DIIS                   CNVDIIS         .... on
   Start iteration      DIISMaxIt       ....     0
   Startup error        DIISStart       ....  0.200000
   # of expansion vecs  DIISMaxEq       ....     5
   Bias factor          DIISBfac        ....   1.050
   Max. coefficient     DIISMaxC        ....  10.000
 Newton-Raphson         CNVNR           .... off
 SOSCF                  CNVSOSCF        .... off
 Level Shifting         CNVShift        .... off
 Zerner damping         CNVZerner       .... off
 Static damping         CNVDamp         .... off
 Fernandez-Rico         CNVRico         .... off

SCF Procedure:
 Maximum # iterations   MaxIter         ....   999
 SCF integral mode      SCFMode         .... Direct
   Integral package                     .... LIBINT
 Reset frequeny         DirectResetFreq ....    20
 Integral Threshold     Thresh          ....  1.000e-10 Eh
 Primitive CutOff       TCut            ....  1.000e-11 Eh

Convergence Tolerance:
 Convergence Check Mode ConvCheckMode   .... All-Criteria
 Convergence forced     ConvForced      .... 0
 Energy Change          TolE            ....  1.000e-06 Eh
 Max Density Change     TolMaxP         ....  1.000e-05
 RMS Density Change     TolRMSP         ....  1.000e-06
 DIIS Error             TolErr          ....  1.000e-06


Diagonalization of the overlap matrix:
Smallest eigenvalue                        ... 2.900e-02
Time for diagonalization                   ...    0.001 sec
Threshold for overlap eigenvalues          ... 1.000e-08
Number of eigenvalues below threshold      ... 0
Time for construction of square roots      ...    0.007 sec
Total time needed                          ...    0.008 sec

-------------------
DFT GRID GENERATION
-------------------

General Integration Accuracy     IntAcc      ...  4.340
Radial Grid Type                 RadialGrid  ... Gauss-Chebyshev
Angular Grid (max. acc.)         AngularGrid ... Lebedev-110
Angular grid pruning method      GridPruning ... 3 (G Style)
Weight generation scheme         WeightScheme... Becke
Basis function cutoff            BFCut       ...    1.0000e-10
Integration weight cutoff        WCut        ...    1.0000e-14
Grids for H and He will be reduced by one unit

# of grid points (after initial pruning)     ...   6548 (   0.0 sec)
# of grid points (after weights+screening)   ...   6413 (   0.0 sec)
nearest neighbour list constructed           ...    0.0 sec
Grid point re-assignment to atoms done       ...    0.0 sec
Grid point division into batches done        ...    0.0 sec
Reduced shell lists constructed in    0.0 sec

Total number of grid points                  ...     6413
Total number of batches                      ...      104
Average number of points per batch           ...       61
Average number of grid points per atom       ...     1069
Average number of shells per batch           ...    16.65 (83.24%)
Average number of basis functions per batch  ...    30.38 (84.39%)
Average number of large shells per batch     ...    13.90 (83.47%)
Average number of large basis fcns per batch ...    24.77 (81.54%)
Maximum spatial batch extension              ...  20.44, 21.59, 21.59 au
Average spatial batch extension              ...   5.24,  4.67,  4.63 au

Time for grid setup =    0.051 sec

------------------------------
INITIAL GUESS: MODEL POTENTIAL
------------------------------
Loading Hartree-Fock densities                     ... done
Calculating cut-offs                               ... done
Setting up the integral package                    ... done
Initializing the effective Hamiltonian             ... done
Starting the Coulomb interaction                   ... done (   0.0 sec)
Reading the grid                                   ... done
Mapping shells                                     ... done
Starting the XC term evaluation                    ... done (   0.0 sec)
  promolecular density results
     # of electrons  =     17.998742963
     EX              =    -14.311196419
     EC              =     -0.542880425
     EX+EC           =    -14.854076843
Transforming the Hamiltonian                       ... done (   0.0 sec)
Diagonalizing the Hamiltonian                      ... done (   0.0 sec)
Back transforming the eigenvectors                 ... done (   0.0 sec)
Now organizing SCF variables                       ... done
                      ------------------
                      INITIAL GUESS DONE (   0.2 sec)
                      ------------------
--------------
SCF ITERATIONS
--------------
ITER       Energy         Delta-E        Max-DP      RMS-DP      [F,P]   Gradient Norm
               ***  Starting incremental Fock matrix formation  ***
                             ****Resetting KDIIS****
                             ****Turning on KDIIS(Cayley)****
  0   -115.2284547675   0.000000000000 0.06947932  0.00398212  0.1949228   0.165855242
  1   -115.3151201904  -0.086665422924 0.04675899  0.00313413  0.1442938   0.125284867
  2   -115.3696048942  -0.054484703827 0.10345228  0.00658579  0.1142839   0.099489042
  3   -115.4513675457  -0.081762651457 0.21280871  0.01170743  0.0825794   0.053093704
  4   -115.4726583714  -0.021290825669 0.13310112  0.00785599  0.0713090   0.047453336
  5   -115.4821193584  -0.009460987030 0.02532129  0.00177662  0.0453293   0.018382084
  6   -115.4865896647  -0.004470306333 0.01669361  0.00174969  0.0309528   0.010948511
  7   -115.4886237389  -0.002034074187 0.02241217  0.00185672  0.0223093   0.009219422
  8   -115.4913063032  -0.002682564264 0.02566510  0.00188870  0.0137014   0.005092593
  9   -115.4922236181  -0.000917314888 0.00409228  0.00053092  0.0010792   0.000878704
 10   -115.4922584902  -0.000034872142 0.00227271  0.00015720  0.0011282   0.000476611
 11   -115.4922627795  -0.000004289305 0.00057699  0.00004157  0.0004630   0.000218192
                          ***Energy convergence achieved***
 12   -115.4922636739  -0.000000894366 0.00010426  0.00001172  0.0000286   0.000023112

            ***Energy convergence in two consecutive cycles with***
                    ***'reasonable' density convergence***
                       *** signaling convergence ***

                    *** KDIIS BlockDiag ( 0.000 sec) ***

               *****************************************************
               *                     SUCCESS                       *
               *           SCF CONVERGED AFTER  13 CYCLES          *
               *****************************************************

Setting up the final grid:

General Integration Accuracy     IntAcc      ...  4.670
Radial Grid Type                 RadialGrid  ... Gauss-Chebyshev
Angular Grid (max. acc.)         AngularGrid ... Lebedev-302
Angular grid pruning method      GridPruning ... 3 (G Style)
Weight generation scheme         WeightScheme... Becke
Basis function cutoff            BFCut       ...    1.0000e-10
Integration weight cutoff        WCut        ...    1.0000e-14
Grids for H and He will be reduced by one unit

# of grid points (after initial pruning)     ...  26000 (   0.0 sec)
# of grid points (after weights+screening)   ...  25350 (   0.0 sec)
nearest neighbour list constructed           ...    0.0 sec
Grid point re-assignment to atoms done       ...    0.0 sec
Grid point division into batches done        ...    0.1 sec
Reduced shell lists constructed in    0.2 sec

Total number of grid points                  ...    25350
Total number of batches                      ...      399
Average number of points per batch           ...       63
Average number of grid points per atom       ...     4225
Average number of shells per batch           ...    15.05 (75.26%)
Average number of basis functions per batch  ...    27.47 (76.30%)
Average number of large shells per batch     ...    12.50 (83.03%)
Average number of large basis fcns per batch ...    22.14 (80.61%)
Maximum spatial batch extension              ...  19.22, 20.64, 20.64 au
Average spatial batch extension              ...   3.18,  3.07,  3.08 au

Final grid set up in    0.2 sec
Final integration                            ... done (   0.2 sec)
Change in XC energy                          ...    -0.000127890
Integrated number of electrons               ...    17.999974512
Previous integrated no of electrons          ...    18.000294933

----------------
TOTAL SCF ENERGY
----------------

Total Energy       :         -115.49239159 Eh           -3142.70775 eV

Components:
Nuclear Repulsion  :           29.29506696 Eh             797.15930 eV
Electronic Energy  :         -144.78745855 Eh           -3939.86705 eV
One Electron Energy:         -215.22023266 Eh           -5856.44027 eV
Two Electron Energy:           70.43277411 Eh            1916.57322 eV

Virial components:
Potential Energy   :         -230.19406003 Eh           -6263.89882 eV
Kinetic Energy     :          114.70166844 Eh            3121.19108 eV
Virial Ratio       :            2.00689374


DFT components:
N(Alpha)           :        8.999987255863 electrons
N(Beta)            :        8.999987255863 electrons
N(Total)           :       17.999974511725 electrons
E(XC)              :      -10.518206695992 Eh       

---------------
SCF CONVERGENCE
---------------

  Last Energy change         ...   -2.2254e-08  Tolerance :   1.0000e-06
  Last MAX-Density change    ...    3.4999e-05  Tolerance :   1.0000e-05
  Last RMS-Density change    ...    2.4623e-06  Tolerance :   1.0000e-06
  Last DIIS Error            ...    1.4644e-05  Tolerance :   1.0000e-06

             **** THE GBW FILE WAS UPDATED (Scan_23.gbw) ****
             **** DENSITY FILE WAS UPDATED (Scan_23.scfp.tmp) ****
             **** ENERGY FILE WAS UPDATED (Scan_23.en.tmp) ****
----------------
ORBITAL ENERGIES
----------------

  NO   OCC          E(Eh)            E(eV) 
   0   2.0000     -19.196348      -522.3592 
   1   2.0000     -10.377174      -282.3773 
   2   2.0000      -0.993417       -27.0322 
   3   2.0000      -0.841316       -22.8934 
   4   2.0000      -0.573341       -15.6014 
   5   2.0000      -0.571716       -15.5572 
   6   2.0000      -0.464781       -12.6473 
   7   2.0000      -0.320062        -8.7093 
   8   2.0000      -0.315419        -8.5830 
   9   0.0000      -0.063436        -1.7262 
  10   0.0000       0.186094         5.0639 
  11   0.0000       0.245773         6.6878 
  12   0.0000       0.246592         6.7101 
  13   0.0000       0.249307         6.7840 
  14   0.0000       0.595989        16.2177 
  15   0.0000       0.602252        16.3881 
  16   0.0000       0.646334        17.5876 
  17   0.0000       0.743700        20.2371 
  18   0.0000       0.977614        26.6022 
  19   0.0000       0.981386        26.7049 
  20   0.0000       1.001117        27.2418 
  21   0.0000       1.030279        28.0353 
  22   0.0000       1.070407        29.1273 
  23   0.0000       1.101701        29.9788 
  24   0.0000       1.265840        34.4453 
  25   0.0000       1.492346        40.6088 
  26   0.0000       1.704289        46.3761 
  27   0.0000       1.705433        46.4072 
  28   0.0000       1.931877        52.5690 
  29   0.0000       1.935524        52.6683 
  30   0.0000       1.983534        53.9747 
  31   0.0000       2.008664        54.6585 
  32   0.0000       2.102260        57.2054 
  33   0.0000       2.248507        61.1850 
  34   0.0000       2.251623        61.2698 
  35   0.0000       2.643824        71.9421 

                    ********************************
                    * MULLIKEN POPULATION ANALYSIS *
                    ********************************

-----------------------
MULLIKEN ATOMIC CHARGES
-----------------------
   0 C :   -0.425005
   1 O :   -0.690514
   2 H :    0.240893
   3 H :    0.240877
   4 H :    0.252460
   5 H :    0.381289
Sum of atomic charges:    0.0000000

--------------------------------
MULLIKEN REDUCED ORBITAL CHARGES
--------------------------------
  0 C s       :     3.427753  s :     3.427753
      pz      :     1.144825  p :     2.975248
      px      :     0.686851
      py      :     1.143571
      dz2     :     0.007686  d :     0.022005
      dxz     :     0.000019
      dyz     :     0.008500
      dx2y2   :     0.005783
      dxy     :     0.000018
  1 O s       :     3.950710  s :     3.950710
      pz      :     1.687884  p :     4.724261
      px      :     1.294591
      py      :     1.741787
      dz2     :     0.001785  d :     0.015542
      dxz     :     0.002829
      dyz     :     0.007528
      dx2y2   :     0.001042
      dxy     :     0.002358
  2 H s       :     0.759107  s :     0.759107
  3 H s       :     0.759123  s :     0.759123
  4 H s       :     0.747540  s :     0.747540
  5 H s       :     0.618711  s :     0.618711


                     *******************************
                     * LOEWDIN POPULATION ANALYSIS *
                     *******************************

----------------------
LOEWDIN ATOMIC CHARGES
----------------------
   0 C :   -0.223155
   1 O :   -0.583290
   2 H :    0.174651
   3 H :    0.174697
   4 H :    0.180203
   5 H :    0.276895

-------------------------------
LOEWDIN REDUCED ORBITAL CHARGES
-------------------------------
  0 C s       :     3.129468  s :     3.129468
      pz      :     1.184746  p :     3.058708
      px      :     0.689792
      py      :     1.184170
      dz2     :     0.012520  d :     0.034979
      dxz     :     0.000037
      dyz     :     0.014576
      dx2y2   :     0.007813
      dxy     :     0.000034
  1 O s       :     3.795407  s :     3.795407
      pz      :     1.708867  p :     4.766916
      px      :     1.298854
      py      :     1.759195
      dz2     :     0.002073  d :     0.020968
      dxz     :     0.003927
      dyz     :     0.010224
      dx2y2   :     0.001474
      dxy     :     0.003270
  2 H s       :     0.825349  s :     0.825349
  3 H s       :     0.825303  s :     0.825303
  4 H s       :     0.819797  s :     0.819797
  5 H s       :     0.723105  s :     0.723105


                      *****************************
                      * MAYER POPULATION ANALYSIS *
                      *****************************

  NA   - Mulliken gross atomic population
  ZA   - Total nuclear charge
  QA   - Mulliken gross atomic charge
  VA   - Mayer's total valence
  BVA  - Mayer's bonded valence
  FA   - Mayer's free valence

  ATOM       NA         ZA         QA         VA         BVA        FA
  0 C      6.4250     6.0000    -0.4250     3.6737     3.6737     0.0000
  1 O      8.6905     8.0000    -0.6905     1.7180     1.7180     0.0000
  2 H      0.7591     1.0000     0.2409     0.9165     0.9165    -0.0000
  3 H      0.7591     1.0000     0.2409     0.9164     0.9164    -0.0000
  4 H      0.7475     1.0000     0.2525     0.9130     0.9130    -0.0000
  5 H      0.6187     1.0000     0.3813     0.8131     0.8131    -0.0000

  Mayer bond orders larger than 0.1
B(  0-C ,  1-O ) :   0.9032 B(  0-C ,  2-H ) :   0.9239 B(  0-C ,  3-H ) :   0.9238 
B(  0-C ,  4-H ) :   0.9212 B(  1-O ,  5-H ) :   0.8114 

-------
TIMINGS
-------

Total SCF time: 0 days 0 hours 0 min 4 sec 

Total time                  ....       4.925 sec
Sum of individual times     ....       4.717 sec  ( 95.8%)

Fock matrix formation       ....       4.254 sec  ( 86.4%)
  XC integration            ....       1.329 sec  ( 31.2% of F)
    Basis function eval.    ....       0.477 sec  ( 35.9% of XC)
    Density eval.           ....       0.065 sec  (  4.9% of XC)
    XC-Functional eval.     ....       0.352 sec  ( 26.5% of XC)
    XC-Potential eval.      ....       0.056 sec  (  4.2% of XC)
Diagonalization             ....       0.018 sec  (  0.4%)
Density matrix formation    ....       0.000 sec  (  0.0%)
Population analysis         ....       0.013 sec  (  0.3%)
Initial guess               ....       0.149 sec  (  3.0%)
Orbital Transformation      ....       0.000 sec  (  0.0%)
Orbital Orthonormalization  ....       0.000 sec  (  0.0%)
DIIS solution               ....       0.000 sec  (  0.0%)
Grid generation             ....       0.283 sec  (  5.7%)


-------------------------------------------------------------------------------
                          DFT DISPERSION CORRECTION                            
                                                                               
                              DFTD3 V3.1  Rev 1                                
                              USING zero damping                               
-------------------------------------------------------------------------------
The omegaB97X-D3 functional is recognized. Fit by Chai et al.
Active option DFTDOPT                   ...         3   

molecular C6(AA) [au] = 243.597840 


            DFT-D V3
 parameters
 s6 scaling factor         :     1.0000 
 rs6 scaling factor        :     1.2810 
 s8 scaling factor         :     1.0000 
 rs8 scaling factor        :     1.0940 
 Damping factor alpha6     :    14.0000 
 Damping factor alpha8     :    16.0000 
 ad hoc parameters k1-k3   :    16.0000     1.3333    -4.0000 

 Edisp/kcal,au: -0.489672472098  -0.000780342672 
 E6   /kcal   :  -0.185409775 
 E8   /kcal   :  -0.304262697 
 % E8         :  62.135961168 

-------------------------   ----------------
Dispersion correction           -0.000780343
-------------------------   ----------------


-------------------------   --------------------
FINAL SINGLE POINT ENERGY      -115.493171928960
-------------------------   --------------------


                            ***************************************
                            *     ORCA property calculations      *
                            ***************************************

                                    ---------------------
                                    Active property flags
                                    ---------------------
   (+) Dipole Moment


------------------------------------------------------------------------------
                       ORCA ELECTRIC PROPERTIES CALCULATION
------------------------------------------------------------------------------

Dipole Moment Calculation                       ... on
Quadrupole Moment Calculation                   ... off
Polarizability Calculation                      ... off
GBWName                                         ... Scan_23.gbw
Electron density file                           ... Scan_23.scfp.tmp

-------------
DIPOLE MOMENT
-------------
                                X             Y             Z
Electronic contribution:      1.11845      -0.15071      -0.17244
Nuclear contribution   :     -2.50759       0.57797       0.65003
                        -----------------------------------------
Total Dipole Moment    :     -1.38914       0.42725       0.47759
                        -----------------------------------------
Magnitude (a.u.)       :      1.52982
Magnitude (Debye)      :      3.88848


Timings for individual modules:

Sum of individual times         ...        5.305 sec (=   0.088 min)
GTO integral calculation        ...        0.333 sec (=   0.006 min)   6.3 %
SCF iterations                  ...        4.972 sec (=   0.083 min)  93.7 %
                             ****ORCA TERMINATED NORMALLY****
TOTAL RUN TIME: 0 days 0 hours 0 minutes 5 seconds 652 msec
