
                                 *****************
                                 * O   R   C   A *
                                 *****************

           --- An Ab Initio, DFT and Semiempirical electronic structure package ---

                  #######################################################
                  #                        -***-                        #
                  #  Department of molecular theory and spectroscopy    #
                  #              Directorship: Frank Neese              #
                  # Max Planck Institute for Chemical Energy Conversion #
                  #                  D-45470 Muelheim/Ruhr              #
                  #                       Germany                       #
                  #                                                     #
                  #                  All rights reserved                #
                  #                        -***-                        #
                  #######################################################


                         Program Version 4.0.0.2 - RELEASE -


 With contributions from (in alphabetic order):
   Daniel Aravena         : Magnetic Properties
   Michael Atanasov       : Ab Initio Ligand Field Theory
   Ute Becker             : Parallelization
   Martin Brehm           : Molecular dynamics
   Dmytro Bykov           : SCF Hessian
   Vijay G. Chilkuri      : MRCI spin determinant printing
   Dipayan Datta          : RHF DLPNO-CCSD density
   Achintya Kumar Dutta   : EOM-CC, STEOM-CC
   Dmitry Ganyushin       : Spin-Orbit,Spin-Spin,Magnetic field MRCI
   Yang Guo               : DLPNO-NEVPT2, CIM, IAO-localization
   Andreas Hansen         : Spin unrestricted coupled pair/coupled cluster methods
   Lee Huntington         : MR-EOM, pCC
   Robert Izsak           : Overlap fitted RIJCOSX, COSX-SCS-MP3, EOM
   Christian Kollmar      : KDIIS, OOCD, Brueckner-CCSD(T), CCSD density
   Simone Kossmann        : Meta GGA functionals, TD-DFT gradient, OOMP2, MP2 Hessian
   Martin Krupicka        : AUTO-CI
   Dagmar Lenk            : GEPOL surface
   Dimitrios Liakos       : Extrapolation schemes; parallel MDCI
   Dimitrios Manganas     : ROCIS; embedding schemes
   Dimitrios Pantazis     : SARC Basis sets
   Taras Petrenko         : DFT Hessian,TD-DFT gradient, ASA, ECA, R-Raman, ABS, FL, XAS/XES, NRVS
   Peter Pinski           : DLPNO-MP2
   Christoph Reimann      : Effective Core Potentials
   Marius Retegan         : Local ZFS, SOC
   Christoph Riplinger    : Optimizer, TS searches, QM/MM, DLPNO-CCSD(T), (RO)-DLPNO pert. Triples
   Tobias Risthaus        : Range-separated hybrids, TD-DFT gradient, RPA, STAB
   Michael Roemelt        : Restricted open shell CIS
   Masaaki Saitow         : Open-shell DLPNO
   Barbara Sandhoefer     : DKH picture change effects
   Kantharuban Sivalingam : CASSCF convergence, NEVPT2, FIC-MRCI
   Georgi Stoychev        : AutoAux
   Boris Wezisla          : Elementary symmetry handling
   Frank Wennmohs         : Technical directorship


 We gratefully acknowledge several colleagues who have allowed us to
 interface, adapt or use parts of their codes:
   Stefan Grimme, W. Hujo, H. Kruse,             : VdW corrections, initial TS optimization,
                  C. Bannwarth                     DFT functionals, gCP, sTDA/sTD-DF
   Ed Valeev                                     : LibInt (2-el integral package), F12 methods
   Garnet Chan, S. Sharma, J. Yang, R. Olivares  : DMRG
   Ulf Ekstrom                                   : XCFun DFT Library
   Mihaly Kallay                                 : mrcc  (arbitrary order and MRCC methods)
   Jiri Pittner, Ondrej Demel                    : Mk-CCSD
   Frank Weinhold                                : gennbo (NPA and NBO analysis)
   Christopher J. Cramer and Donald G. Truhlar   : smd solvation model


 Your calculation uses the libint2 library for the computation of 2-el integrals
 For citations please refer to: http://libint.valeyev.net

 This ORCA versions uses:
   CBLAS   interface :  Fast vector & matrix operations
   LAPACKE interface :  Fast linear algebra routines
   SCALAPACK package :  Parallel linear algebra routines


Your calculation utilizes the atom-pairwise dispersion correction
with the zero-damping scheme (D30)
Cite in your paper:
S.Grimme, J.Antony, S.Ehrlich and H.Krieg, J.Chem.Phys., 132, (2010), 154104 
   

XCFun DFT library Copyright 2009-2010 Ulf Ekstrom and contributors.
See http://admol.org/xcfun for more information. This is free soft-
ware; see the source code for copying conditions. There is ABSOLUTELY
NO WARRANTY; not even for MERCHANTABILITY or FITNESS FOR A PARTICULAR
PURPOSE. For details see the documentation. Scientific users of this 
library should cite U. Ekstrom, L. Visscher, R. Bast, A. J. Thorvald-
sen and K. Ruud; J.Chem.Theor.Comp. 2010, DOI: 10.1021/ct100117s
XCFun Version 0.99 
Your calculation utilizes the basis: 6-31G(d)
   H-He, Li-Ne : W. J. Hehre, R. Ditchfield and J.A. Pople, J. Chem. Phys. 56, 2257 (1972).
                 Note: He and Ne are unpublished basis sets taken from the Gaussian program.
                 Note: Li and B from J. D. Dill and J. A. Pople, J. Chem. Phys. 62, 2921 (1975).
   Na - Ar     : M. M. Francl, W. J. Pietro, W. J. Hehre, J. S. Binkley, M. S. Gordon, 
                 D. J. DeFrees and J. A. Pople, J. Chem. Phys. 77, 3654 (1982).
   K - Zn      : V. A. Rassolov, J. A. Pople, M. A. Ratner, and T. L. Windus, J. Chem. Phys. 109, 1223 (1998).

================================================================================
                                        WARNINGS
                       Please study these warnings very carefully!
================================================================================

Warning: TCutStore was < 0. Adjusted to Thresh (uncritical)

INFO   : the flag for use of LIBINT has been found!

================================================================================
                                       INPUT FILE
================================================================================
NAME = initial24.inp
|  1> ! WB97X-D3 6-31G(d) VerySlowConv
|  2> ! KDIIS NOSOSCF
|  3> %base "Scan_24"
|  4> 
|  5> %scf
|  6> maxiter 999
|  7> end
|  8> 
|  9> * xyz 0 1
| 10> C         -4.692393604480    2.343109806607    0.039040503436
| 11> O         -1.852288189363    2.284209221298   -0.041226349496
| 12> H         -4.690580414300    3.388483622449   -0.189284248282
| 13> H         -4.683815123979    2.015463162461    1.057625785650
| 14> H         -4.616398949257    1.625867570242   -0.751154743162
| 15> H         -1.351633718621    2.834496616944    0.561999051854
| 16> **                         ****END OF INPUT****
================================================================================

                       ****************************
                       * Single Point Calculation *
                       ****************************

---------------------------------
CARTESIAN COORDINATES (ANGSTROEM)
---------------------------------
  C     -4.692394    2.343110    0.039041
  O     -1.852288    2.284209   -0.041226
  H     -4.690580    3.388484   -0.189284
  H     -4.683815    2.015463    1.057626
  H     -4.616399    1.625868   -0.751155
  H     -1.351634    2.834497    0.561999

----------------------------
CARTESIAN COORDINATES (A.U.)
----------------------------
  NO LB      ZA    FRAG     MASS         X           Y           Z
   0 C     6.0000    0    12.011   -8.867339    4.427836    0.073776
   1 O     8.0000    0    15.999   -3.500317    4.316530   -0.077907
   2 H     1.0000    0     1.008   -8.863912    6.403306   -0.357695
   3 H     1.0000    0     1.008   -8.851128    3.808673    1.998623
   4 H     1.0000    0     1.008   -8.723730    3.072444   -1.419477
   5 H     1.0000    0     1.008   -2.554218    5.356422    1.062024

--------------------------------
INTERNAL COORDINATES (ANGSTROEM)
--------------------------------
 C      0   0   0     0.000000000000     0.00000000     0.00000000
 O      1   0   0     2.841849893222     0.00000000     0.00000000
 H      1   2   0     1.070019576809    90.71783892     0.00000000
 H      1   2   3     1.070019575004    90.71783323   239.83431199
 H      1   2   3     1.069869216771    83.92995856   119.91715592
 H      2   1   3     0.957784945442   119.51842783    60.08280603

---------------------------
INTERNAL COORDINATES (A.U.)
---------------------------
 C      0   0   0     0.000000000000     0.00000000     0.00000000
 O      1   0   0     5.370318011903     0.00000000     0.00000000
 H      1   2   0     2.022043958103    90.71783892     0.00000000
 H      1   2   3     2.022043954692    90.71783323   239.83431199
 H      1   2   3     2.021759818810    83.92995856   119.91715592
 H      2   1   3     1.809951242077   119.51842783    60.08280603

---------------------
BASIS SET INFORMATION
---------------------
There are 3 groups of distinct atoms

 Group   1 Type C   : 10s4p1d contracted to 3s2p1d pattern {631/31/1}
 Group   2 Type O   : 10s4p1d contracted to 3s2p1d pattern {631/31/1}
 Group   3 Type H   : 4s contracted to 2s pattern {31}

Atom   0C    basis set group =>   1
Atom   1O    basis set group =>   2
Atom   2H    basis set group =>   3
Atom   3H    basis set group =>   3
Atom   4H    basis set group =>   3
Atom   5H    basis set group =>   3
------------------------------------------------------------------------------
                           ORCA GTO INTEGRAL CALCULATION
------------------------------------------------------------------------------

                         BASIS SET STATISTICS AND STARTUP INFO

 # of primitive gaussian shells          ...   46
 # of primitive gaussian functions       ...   70
 # of contracted shells                  ...   20
 # of contracted basis functions         ...   36
 Highest angular momentum                ...    2
 Maximum contraction depth               ...    6
 Integral package used                   ... LIBINT
 Integral threshhold            Thresh   ...  1.000e-10
 Primitive cut-off              TCut     ...  1.000e-11


------------------------------ INTEGRAL EVALUATION ----------------------------


 * One electron integrals 
 Pre-screening matrix                    ... done
 Shell pair data                         ... done (   0.000 sec)

-------------------------------------------------------------------------------
                                 ORCA SCF
-------------------------------------------------------------------------------

------------
SCF SETTINGS
------------
Hamiltonian:
 Density Functional     Method          .... DFT(GTOs)
 Exchange Functional    Exchange        .... WB97X-D3
 Correlation Functional Correlation     .... WB97X-D3
 Gradients option       PostSCFGGA      .... off
 Hybrid DFT is turned on
   Fraction HF Exchange ScalHFX         ....  0.195728
   Scaling of DF-GGA-X  ScalDFX         ....  0.000000
   Scaling of DF-GGA-C  ScalDFC         ....  1.000000
   Scaling of DF-LDA-C  ScalLDAC        ....  1.000000
   Perturbative correction              ....  0.000000
 Long-range corrected/Screened/Range-Separated Hybrid DFT is turned on
   Amount of maximum screened exact exchange              ....  0.804272
   Range separation parameter mu (erf(mu*r12)/r12)        ....  0.250000


General Settings:
 Integral files         IntName         .... Scan_24
 Hartree-Fock type      HFTyp           .... RHF
 Total Charge           Charge          ....    0
 Multiplicity           Mult            ....    1
 Number of Electrons    NEL             ....   18
 Basis Dimension        Dim             ....   36
 Nuclear Repulsion      ENuc            ....     28.7162141968 Eh

Convergence Acceleration:
 DIIS                   CNVDIIS         .... on
   Start iteration      DIISMaxIt       ....     0
   Startup error        DIISStart       ....  0.200000
   # of expansion vecs  DIISMaxEq       ....     5
   Bias factor          DIISBfac        ....   1.050
   Max. coefficient     DIISMaxC        ....  10.000
 Newton-Raphson         CNVNR           .... off
 SOSCF                  CNVSOSCF        .... off
 Level Shifting         CNVShift        .... off
 Zerner damping         CNVZerner       .... off
 Static damping         CNVDamp         .... off
 Fernandez-Rico         CNVRico         .... off

SCF Procedure:
 Maximum # iterations   MaxIter         ....   999
 SCF integral mode      SCFMode         .... Direct
   Integral package                     .... LIBINT
 Reset frequeny         DirectResetFreq ....    20
 Integral Threshold     Thresh          ....  1.000e-10 Eh
 Primitive CutOff       TCut            ....  1.000e-11 Eh

Convergence Tolerance:
 Convergence Check Mode ConvCheckMode   .... All-Criteria
 Convergence forced     ConvForced      .... 0
 Energy Change          TolE            ....  1.000e-06 Eh
 Max Density Change     TolMaxP         ....  1.000e-05
 RMS Density Change     TolRMSP         ....  1.000e-06
 DIIS Error             TolErr          ....  1.000e-06


Diagonalization of the overlap matrix:
Smallest eigenvalue                        ... 2.946e-02
Time for diagonalization                   ...    0.001 sec
Threshold for overlap eigenvalues          ... 1.000e-08
Number of eigenvalues below threshold      ... 0
Time for construction of square roots      ...    0.053 sec
Total time needed                          ...    0.054 sec

-------------------
DFT GRID GENERATION
-------------------

General Integration Accuracy     IntAcc      ...  4.340
Radial Grid Type                 RadialGrid  ... Gauss-Chebyshev
Angular Grid (max. acc.)         AngularGrid ... Lebedev-110
Angular grid pruning method      GridPruning ... 3 (G Style)
Weight generation scheme         WeightScheme... Becke
Basis function cutoff            BFCut       ...    1.0000e-10
Integration weight cutoff        WCut        ...    1.0000e-14
Grids for H and He will be reduced by one unit

# of grid points (after initial pruning)     ...   6548 (   0.0 sec)
# of grid points (after weights+screening)   ...   6403 (   0.0 sec)
nearest neighbour list constructed           ...    0.0 sec
Grid point re-assignment to atoms done       ...    0.0 sec
Grid point division into batches done        ...    0.0 sec
Reduced shell lists constructed in    0.1 sec

Total number of grid points                  ...     6403
Total number of batches                      ...      104
Average number of points per batch           ...       61
Average number of grid points per atom       ...     1067
Average number of shells per batch           ...    16.30 (81.48%)
Average number of basis functions per batch  ...    29.59 (82.20%)
Average number of large shells per batch     ...    13.81 (84.75%)
Average number of large basis fcns per batch ...    24.51 (82.85%)
Maximum spatial batch extension              ...  20.43, 21.59, 21.59 au
Average spatial batch extension              ...   5.33,  4.72,  4.59 au

Time for grid setup =    0.194 sec

------------------------------
INITIAL GUESS: MODEL POTENTIAL
------------------------------
Loading Hartree-Fock densities                     ... done
Calculating cut-offs                               ... done
Setting up the integral package                    ... done
Initializing the effective Hamiltonian             ... done
Starting the Coulomb interaction                   ... done (   0.0 sec)
Reading the grid                                   ... done
Mapping shells                                     ... done
Starting the XC term evaluation                    ... done (   0.1 sec)
  promolecular density results
     # of electrons  =     17.999411173
     EX              =    -14.310449871
     EC              =     -0.542104911
     EX+EC           =    -14.852554782
Transforming the Hamiltonian                       ... done (   0.0 sec)
Diagonalizing the Hamiltonian                      ... done (   0.0 sec)
Back transforming the eigenvectors                 ... done (   0.0 sec)
Now organizing SCF variables                       ... done
                      ------------------
                      INITIAL GUESS DONE (   0.6 sec)
                      ------------------
--------------
SCF ITERATIONS
--------------
ITER       Energy         Delta-E        Max-DP      RMS-DP      [F,P]   Gradient Norm
               ***  Starting incremental Fock matrix formation  ***
                             ****Resetting KDIIS****
                             ****Turning on KDIIS(Cayley)****
  0   -115.1984043195   0.000000000000 0.07279611  0.00422416  0.2114367   0.168929377
  1   -115.2899434835  -0.091539163937 0.04436602  0.00322352  0.1565789   0.126803235
  2   -115.3448158832  -0.054872399755 0.10729017  0.00740820  0.1219860   0.100970094
  3   -115.4329029703  -0.088087087070 0.19652615  0.01154984  0.0808093   0.054200176
  4   -115.4582576980  -0.025354727733 0.14174650  0.00844245  0.0619737   0.046165380
  5   -115.4626217257  -0.004364027697 0.03114729  0.00243500  0.0532906   0.021547943
  6   -115.4707809817  -0.008159255955 0.01521953  0.00214453  0.0350847   0.012599522
  7   -115.4735862581  -0.002805276375 0.02069269  0.00179262  0.0263487   0.010856133
  8   -115.4764607272  -0.002874469171 0.04198777  0.00308029  0.0210221   0.007833744
  9   -115.4782871143  -0.001826387099 0.01115267  0.00111732  0.0050926   0.002194264
 10   -115.4785274406  -0.000240326241 0.00298600  0.00021433  0.0022118   0.001054527
 11   -115.4785474454  -0.000020004863 0.00029446  0.00002573  0.0001356   0.000173851
                          ***Energy convergence achieved***
 12   -115.4785477405  -0.000000295043 0.00010307  0.00001053  0.0000377   0.000040325

            ***Energy convergence in two consecutive cycles with***
                    ***'reasonable' density convergence***
                       *** signaling convergence ***

                    *** KDIIS BlockDiag ( 0.000 sec) ***

               *****************************************************
               *                     SUCCESS                       *
               *           SCF CONVERGED AFTER  13 CYCLES          *
               *****************************************************

Setting up the final grid:

General Integration Accuracy     IntAcc      ...  4.670
Radial Grid Type                 RadialGrid  ... Gauss-Chebyshev
Angular Grid (max. acc.)         AngularGrid ... Lebedev-302
Angular grid pruning method      GridPruning ... 3 (G Style)
Weight generation scheme         WeightScheme... Becke
Basis function cutoff            BFCut       ...    1.0000e-10
Integration weight cutoff        WCut        ...    1.0000e-14
Grids for H and He will be reduced by one unit

# of grid points (after initial pruning)     ...  26000 (   0.0 sec)
# of grid points (after weights+screening)   ...  25369 (   0.0 sec)
nearest neighbour list constructed           ...    0.0 sec
Grid point re-assignment to atoms done       ...    0.0 sec
Grid point division into batches done        ...    0.3 sec
Reduced shell lists constructed in    0.6 sec

Total number of grid points                  ...    25369
Total number of batches                      ...      400
Average number of points per batch           ...       63
Average number of grid points per atom       ...     4228
Average number of shells per batch           ...    14.76 (73.80%)
Average number of basis functions per batch  ...    26.82 (74.49%)
Average number of large shells per batch     ...    12.30 (83.31%)
Average number of large basis fcns per batch ...    21.77 (81.18%)
Maximum spatial batch extension              ...  19.41, 20.64, 20.64 au
Average spatial batch extension              ...   3.18,  3.08,  3.06 au

Final grid set up in    0.7 sec
Final integration                            ... done (   0.5 sec)
Change in XC energy                          ...    -0.000299933
Integrated number of electrons               ...    17.999973773
Previous integrated no of electrons          ...    18.000844948

----------------
TOTAL SCF ENERGY
----------------

Total Energy       :         -115.47884770 Eh           -3142.33920 eV

Components:
Nuclear Repulsion  :           28.71621420 Eh             781.40791 eV
Electronic Energy  :         -144.19506189 Eh           -3923.74711 eV
One Electron Energy:         -214.07560240 Eh           -5825.29329 eV
Two Electron Energy:           69.88054050 Eh            1901.54618 eV

Virial components:
Potential Energy   :         -230.19956706 Eh           -6264.04868 eV
Kinetic Energy     :          114.72071936 Eh            3121.70948 eV
Virial Ratio       :            2.00660847


DFT components:
N(Alpha)           :        8.999986886556 electrons
N(Beta)            :        8.999986886556 electrons
N(Total)           :       17.999973773112 electrons
E(XC)              :      -10.518776890186 Eh       

---------------
SCF CONVERGENCE
---------------

  Last Energy change         ...   -2.3980e-08  Tolerance :   1.0000e-06
  Last MAX-Density change    ...    6.5966e-05  Tolerance :   1.0000e-05
  Last RMS-Density change    ...    6.2557e-06  Tolerance :   1.0000e-06
  Last DIIS Error            ...    3.7247e-05  Tolerance :   1.0000e-06

             **** THE GBW FILE WAS UPDATED (Scan_24.gbw) ****
             **** DENSITY FILE WAS UPDATED (Scan_24.scfp.tmp) ****
             **** ENERGY FILE WAS UPDATED (Scan_24.en.tmp) ****
----------------
ORBITAL ENERGIES
----------------

  NO   OCC          E(Eh)            E(eV) 
   0   2.0000     -19.190869      -522.2101 
   1   2.0000     -10.378738      -282.4198 
   2   2.0000      -0.989060       -26.9137 
   3   2.0000      -0.843346       -22.9486 
   4   2.0000      -0.575256       -15.6535 
   5   2.0000      -0.573400       -15.6030 
   6   2.0000      -0.461069       -12.5463 
   7   2.0000      -0.315979        -8.5982 
   8   2.0000      -0.305552        -8.3145 
   9   0.0000      -0.073115        -1.9896 
  10   0.0000       0.186350         5.0708 
  11   0.0000       0.244635         6.6568 
  12   0.0000       0.246764         6.7148 
  13   0.0000       0.250009         6.8031 
  14   0.0000       0.594750        16.1840 
  15   0.0000       0.600484        16.3400 
  16   0.0000       0.639234        17.3944 
  17   0.0000       0.739830        20.1318 
  18   0.0000       0.976802        26.5801 
  19   0.0000       0.980713        26.6866 
  20   0.0000       0.999661        27.2022 
  21   0.0000       1.025193        27.8969 
  22   0.0000       1.070972        29.1426 
  23   0.0000       1.097519        29.8650 
  24   0.0000       1.267896        34.5012 
  25   0.0000       1.467869        39.9427 
  26   0.0000       1.701210        46.2923 
  27   0.0000       1.702200        46.3192 
  28   0.0000       1.937568        52.7239 
  29   0.0000       1.938748        52.7560 
  30   0.0000       1.988070        54.0981 
  31   0.0000       1.999462        54.4081 
  32   0.0000       2.100165        57.1484 
  33   0.0000       2.244731        61.0822 
  34   0.0000       2.248331        61.1802 
  35   0.0000       2.648793        72.0773 

                    ********************************
                    * MULLIKEN POPULATION ANALYSIS *
                    ********************************

-----------------------
MULLIKEN ATOMIC CHARGES
-----------------------
   0 C :   -0.422138
   1 O :   -0.700274
   2 H :    0.242560
   3 H :    0.242529
   4 H :    0.255658
   5 H :    0.381666
Sum of atomic charges:   -0.0000000

--------------------------------
MULLIKEN REDUCED ORBITAL CHARGES
--------------------------------
  0 C s       :     3.429712  s :     3.429712
      pz      :     1.146973  p :     2.970629
      px      :     0.678157
      py      :     1.145499
      dz2     :     0.007644  d :     0.021797
      dxz     :     0.000029
      dyz     :     0.008459
      dx2y2   :     0.005636
      dxy     :     0.000030
  1 O s       :     3.950273  s :     3.950273
      pz      :     1.692596  p :     4.734731
      px      :     1.296436
      py      :     1.745699
      dz2     :     0.001252  d :     0.015269
      dxz     :     0.004239
      dyz     :     0.005790
      dx2y2   :     0.000419
      dxy     :     0.003569
  2 H s       :     0.757440  s :     0.757440
  3 H s       :     0.757471  s :     0.757471
  4 H s       :     0.744342  s :     0.744342
  5 H s       :     0.618334  s :     0.618334


                     *******************************
                     * LOEWDIN POPULATION ANALYSIS *
                     *******************************

----------------------
LOEWDIN ATOMIC CHARGES
----------------------
   0 C :   -0.216333
   1 O :   -0.593791
   2 H :    0.175642
   3 H :    0.175685
   4 H :    0.181965
   5 H :    0.276832

-------------------------------
LOEWDIN REDUCED ORBITAL CHARGES
-------------------------------
  0 C s       :     3.131106  s :     3.131106
      pz      :     1.185661  p :     3.050562
      px      :     0.680044
      py      :     1.184856
      dz2     :     0.012469  d :     0.034665
      dxz     :     0.000071
      dyz     :     0.014441
      dx2y2   :     0.007624
      dxy     :     0.000061
  1 O s       :     3.795340  s :     3.795340
      pz      :     1.710963  p :     4.777803
      px      :     1.305883
      py      :     1.760957
      dz2     :     0.001356  d :     0.020648
      dxz     :     0.005972
      dyz     :     0.007739
      dx2y2   :     0.000571
      dxy     :     0.005011
  2 H s       :     0.824358  s :     0.824358
  3 H s       :     0.824315  s :     0.824315
  4 H s       :     0.818035  s :     0.818035
  5 H s       :     0.723168  s :     0.723168


                      *****************************
                      * MAYER POPULATION ANALYSIS *
                      *****************************

  NA   - Mulliken gross atomic population
  ZA   - Total nuclear charge
  QA   - Mulliken gross atomic charge
  VA   - Mayer's total valence
  BVA  - Mayer's bonded valence
  FA   - Mayer's free valence

  ATOM       NA         ZA         QA         VA         BVA        FA
  0 C      6.4221     6.0000    -0.4221     3.6654     3.6654    -0.0000
  1 O      8.7003     8.0000    -0.7003     1.7111     1.7111     0.0000
  2 H      0.7574     1.0000     0.2426     0.9155     0.9155    -0.0000
  3 H      0.7575     1.0000     0.2425     0.9154     0.9154    -0.0000
  4 H      0.7443     1.0000     0.2557     0.9117     0.9117    -0.0000
  5 H      0.6183     1.0000     0.3817     0.8129     0.8129     0.0000

  Mayer bond orders larger than 0.1
B(  0-C ,  1-O ) :   0.8974 B(  0-C ,  2-H ) :   0.9232 B(  0-C ,  3-H ) :   0.9231 
B(  0-C ,  4-H ) :   0.9196 B(  1-O ,  5-H ) :   0.8106 

-------
TIMINGS
-------

Total SCF time: 0 days 0 hours 0 min 17 sec 

Total time                  ....      17.886 sec
Sum of individual times     ....      17.028 sec  ( 95.2%)

Fock matrix formation       ....      15.566 sec  ( 87.0%)
  XC integration            ....       3.453 sec  ( 22.2% of F)
    Basis function eval.    ....       0.739 sec  ( 21.4% of XC)
    Density eval.           ....       0.236 sec  (  6.8% of XC)
    XC-Functional eval.     ....       0.972 sec  ( 28.1% of XC)
    XC-Potential eval.      ....       0.076 sec  (  2.2% of XC)
Diagonalization             ....       0.081 sec  (  0.5%)
Density matrix formation    ....       0.000 sec  (  0.0%)
Population analysis         ....       0.044 sec  (  0.2%)
Initial guess               ....       0.452 sec  (  2.5%)
Orbital Transformation      ....       0.000 sec  (  0.0%)
Orbital Orthonormalization  ....       0.000 sec  (  0.0%)
DIIS solution               ....       0.000 sec  (  0.0%)
Grid generation             ....       0.884 sec  (  4.9%)


-------------------------------------------------------------------------------
                          DFT DISPERSION CORRECTION                            
                                                                               
                              DFTD3 V3.1  Rev 1                                
                              USING zero damping                               
-------------------------------------------------------------------------------
The omegaB97X-D3 functional is recognized. Fit by Chai et al.
Active option DFTDOPT                   ...         3   

molecular C6(AA) [au] = 243.614113 


            DFT-D V3
 parameters
 s6 scaling factor         :     1.0000 
 rs6 scaling factor        :     1.2810 
 s8 scaling factor         :     1.0000 
 rs8 scaling factor        :     1.0940 
 Damping factor alpha6     :    14.0000 
 Damping factor alpha8     :    16.0000 
 ad hoc parameters k1-k3   :    16.0000     1.3333    -4.0000 

 Edisp/kcal,au: -0.467567419734  -0.000745116033 
 E6   /kcal   :  -0.201525849 
 E8   /kcal   :  -0.266041571 
 % E8         :  56.899082331 

-------------------------   ----------------
Dispersion correction           -0.000745116
-------------------------   ----------------


-------------------------   --------------------
FINAL SINGLE POINT ENERGY      -115.479592813504
-------------------------   --------------------


                            ***************************************
                            *     ORCA property calculations      *
                            ***************************************

                                    ---------------------
                                    Active property flags
                                    ---------------------
   (+) Dipole Moment


------------------------------------------------------------------------------
                       ORCA ELECTRIC PROPERTIES CALCULATION
------------------------------------------------------------------------------

Dipole Moment Calculation                       ... on
Quadrupole Moment Calculation                   ... off
Polarizability Calculation                      ... off
GBWName                                         ... Scan_24.gbw
Electron density file                           ... Scan_24.scfp.tmp

-------------
DIPOLE MOMENT
-------------
                                X             Y             Z
Electronic contribution:      1.09298      -0.13054      -0.14988
Nuclear contribution   :     -2.49161       0.51310       0.57851
                        -----------------------------------------
Total Dipole Moment    :     -1.39863       0.38256       0.42863
                        -----------------------------------------
Magnitude (a.u.)       :      1.51204
Magnitude (Debye)      :      3.84329


Timings for individual modules:

Sum of individual times         ...       19.034 sec (=   0.317 min)
GTO integral calculation        ...        0.858 sec (=   0.014 min)   4.5 %
SCF iterations                  ...       18.176 sec (=   0.303 min)  95.5 %
                             ****ORCA TERMINATED NORMALLY****
TOTAL RUN TIME: 0 days 0 hours 0 minutes 20 seconds 447 msec
