
                                 *****************
                                 * O   R   C   A *
                                 *****************

           --- An Ab Initio, DFT and Semiempirical electronic structure package ---

                  #######################################################
                  #                        -***-                        #
                  #  Department of molecular theory and spectroscopy    #
                  #              Directorship: Frank Neese              #
                  # Max Planck Institute for Chemical Energy Conversion #
                  #                  D-45470 Muelheim/Ruhr              #
                  #                       Germany                       #
                  #                                                     #
                  #                  All rights reserved                #
                  #                        -***-                        #
                  #######################################################


                         Program Version 4.0.0.2 - RELEASE -


 With contributions from (in alphabetic order):
   Daniel Aravena         : Magnetic Properties
   Michael Atanasov       : Ab Initio Ligand Field Theory
   Ute Becker             : Parallelization
   Martin Brehm           : Molecular dynamics
   Dmytro Bykov           : SCF Hessian
   Vijay G. Chilkuri      : MRCI spin determinant printing
   Dipayan Datta          : RHF DLPNO-CCSD density
   Achintya Kumar Dutta   : EOM-CC, STEOM-CC
   Dmitry Ganyushin       : Spin-Orbit,Spin-Spin,Magnetic field MRCI
   Yang Guo               : DLPNO-NEVPT2, CIM, IAO-localization
   Andreas Hansen         : Spin unrestricted coupled pair/coupled cluster methods
   Lee Huntington         : MR-EOM, pCC
   Robert Izsak           : Overlap fitted RIJCOSX, COSX-SCS-MP3, EOM
   Christian Kollmar      : KDIIS, OOCD, Brueckner-CCSD(T), CCSD density
   Simone Kossmann        : Meta GGA functionals, TD-DFT gradient, OOMP2, MP2 Hessian
   Martin Krupicka        : AUTO-CI
   Dagmar Lenk            : GEPOL surface
   Dimitrios Liakos       : Extrapolation schemes; parallel MDCI
   Dimitrios Manganas     : ROCIS; embedding schemes
   Dimitrios Pantazis     : SARC Basis sets
   Taras Petrenko         : DFT Hessian,TD-DFT gradient, ASA, ECA, R-Raman, ABS, FL, XAS/XES, NRVS
   Peter Pinski           : DLPNO-MP2
   Christoph Reimann      : Effective Core Potentials
   Marius Retegan         : Local ZFS, SOC
   Christoph Riplinger    : Optimizer, TS searches, QM/MM, DLPNO-CCSD(T), (RO)-DLPNO pert. Triples
   Tobias Risthaus        : Range-separated hybrids, TD-DFT gradient, RPA, STAB
   Michael Roemelt        : Restricted open shell CIS
   Masaaki Saitow         : Open-shell DLPNO
   Barbara Sandhoefer     : DKH picture change effects
   Kantharuban Sivalingam : CASSCF convergence, NEVPT2, FIC-MRCI
   Georgi Stoychev        : AutoAux
   Boris Wezisla          : Elementary symmetry handling
   Frank Wennmohs         : Technical directorship


 We gratefully acknowledge several colleagues who have allowed us to
 interface, adapt or use parts of their codes:
   Stefan Grimme, W. Hujo, H. Kruse,             : VdW corrections, initial TS optimization,
                  C. Bannwarth                     DFT functionals, gCP, sTDA/sTD-DF
   Ed Valeev                                     : LibInt (2-el integral package), F12 methods
   Garnet Chan, S. Sharma, J. Yang, R. Olivares  : DMRG
   Ulf Ekstrom                                   : XCFun DFT Library
   Mihaly Kallay                                 : mrcc  (arbitrary order and MRCC methods)
   Jiri Pittner, Ondrej Demel                    : Mk-CCSD
   Frank Weinhold                                : gennbo (NPA and NBO analysis)
   Christopher J. Cramer and Donald G. Truhlar   : smd solvation model


 Your calculation uses the libint2 library for the computation of 2-el integrals
 For citations please refer to: http://libint.valeyev.net

 This ORCA versions uses:
   CBLAS   interface :  Fast vector & matrix operations
   LAPACKE interface :  Fast linear algebra routines
   SCALAPACK package :  Parallel linear algebra routines


Your calculation utilizes the atom-pairwise dispersion correction
with the zero-damping scheme (D30)
Cite in your paper:
S.Grimme, J.Antony, S.Ehrlich and H.Krieg, J.Chem.Phys., 132, (2010), 154104 
   

XCFun DFT library Copyright 2009-2010 Ulf Ekstrom and contributors.
See http://admol.org/xcfun for more information. This is free soft-
ware; see the source code for copying conditions. There is ABSOLUTELY
NO WARRANTY; not even for MERCHANTABILITY or FITNESS FOR A PARTICULAR
PURPOSE. For details see the documentation. Scientific users of this 
library should cite U. Ekstrom, L. Visscher, R. Bast, A. J. Thorvald-
sen and K. Ruud; J.Chem.Theor.Comp. 2010, DOI: 10.1021/ct100117s
XCFun Version 0.99 
Your calculation utilizes the basis: 6-31G(d)
   H-He, Li-Ne : W. J. Hehre, R. Ditchfield and J.A. Pople, J. Chem. Phys. 56, 2257 (1972).
                 Note: He and Ne are unpublished basis sets taken from the Gaussian program.
                 Note: Li and B from J. D. Dill and J. A. Pople, J. Chem. Phys. 62, 2921 (1975).
   Na - Ar     : M. M. Francl, W. J. Pietro, W. J. Hehre, J. S. Binkley, M. S. Gordon, 
                 D. J. DeFrees and J. A. Pople, J. Chem. Phys. 77, 3654 (1982).
   K - Zn      : V. A. Rassolov, J. A. Pople, M. A. Ratner, and T. L. Windus, J. Chem. Phys. 109, 1223 (1998).

================================================================================
                                        WARNINGS
                       Please study these warnings very carefully!
================================================================================

Warning: TCutStore was < 0. Adjusted to Thresh (uncritical)

INFO   : the flag for use of LIBINT has been found!

================================================================================
                                       INPUT FILE
================================================================================
NAME = initial25.inp
|  1> ! WB97X-D3 6-31G(d) VerySlowConv
|  2> ! KDIIS NOSOSCF
|  3> %base "Scan_25"
|  4> 
|  5> %scf
|  6> maxiter 999
|  7> end
|  8> 
|  9> * xyz 0 1
| 10> C         -4.752198433060    2.337854009505    0.033577632905
| 11> O         -1.804268711750    2.326306031537    0.004867424567
| 12> H         -4.768852866789    3.382884065028   -0.194634150665
| 13> H         -4.762089478494    2.010253100297    1.051922183499
| 14> H         -4.630077587103    1.623508231460   -0.753678476253
| 15> H         -1.169622922804    2.810824562174    0.534945385946
| 16> **                         ****END OF INPUT****
================================================================================

                       ****************************
                       * Single Point Calculation *
                       ****************************

---------------------------------
CARTESIAN COORDINATES (ANGSTROEM)
---------------------------------
  C     -4.752198    2.337854    0.033578
  O     -1.804269    2.326306    0.004867
  H     -4.768853    3.382884   -0.194634
  H     -4.762089    2.010253    1.051922
  H     -4.630078    1.623508   -0.753678
  H     -1.169623    2.810825    0.534945

----------------------------
CARTESIAN COORDINATES (A.U.)
----------------------------
  NO LB      ZA    FRAG     MASS         X           Y           Z
   0 C     6.0000    0    12.011   -8.980354    4.417904    0.063453
   1 O     8.0000    0    15.999   -3.409574    4.396081    0.009198
   2 H     1.0000    0     1.008   -9.011826    6.392724   -0.367805
   3 H     1.0000    0     1.008   -8.999045    3.798828    1.987845
   4 H     1.0000    0     1.008   -8.749579    3.067986   -1.424246
   5 H     1.0000    0     1.008   -2.210267    5.311689    1.010900

--------------------------------
INTERNAL COORDINATES (ANGSTROEM)
--------------------------------
 C      0   0   0     0.000000000000     0.00000000     0.00000000
 O      1   0   0     2.948092141308     0.00000000     0.00000000
 H      1   2   0     1.069787738418    90.99218889     0.00000000
 H      1   2   3     1.069787741666    90.99218501   239.83342805
 H      1   2   3     1.070035313919    82.88267390   119.91671369
 H      2   1   3     0.958392471328   130.90411668    60.08325232

---------------------------
INTERNAL COORDINATES (A.U.)
---------------------------
 C      0   0   0     0.000000000000     0.00000000     0.00000000
 O      1   0   0     5.571086764637     0.00000000     0.00000000
 H      1   2   0     2.021605847037    90.99218889     0.00000000
 H      1   2   3     2.021605853174    90.99218501   239.83342805
 H      1   2   3     2.022073696932    82.88267390   119.91671369
 H      2   1   3     1.811099299621   130.90411668    60.08325232

---------------------
BASIS SET INFORMATION
---------------------
There are 3 groups of distinct atoms

 Group   1 Type C   : 10s4p1d contracted to 3s2p1d pattern {631/31/1}
 Group   2 Type O   : 10s4p1d contracted to 3s2p1d pattern {631/31/1}
 Group   3 Type H   : 4s contracted to 2s pattern {31}

Atom   0C    basis set group =>   1
Atom   1O    basis set group =>   2
Atom   2H    basis set group =>   3
Atom   3H    basis set group =>   3
Atom   4H    basis set group =>   3
Atom   5H    basis set group =>   3
------------------------------------------------------------------------------
                           ORCA GTO INTEGRAL CALCULATION
------------------------------------------------------------------------------

                         BASIS SET STATISTICS AND STARTUP INFO

 # of primitive gaussian shells          ...   46
 # of primitive gaussian functions       ...   70
 # of contracted shells                  ...   20
 # of contracted basis functions         ...   36
 Highest angular momentum                ...    2
 Maximum contraction depth               ...    6
 Integral package used                   ... LIBINT
 Integral threshhold            Thresh   ...  1.000e-10
 Primitive cut-off              TCut     ...  1.000e-11


------------------------------ INTEGRAL EVALUATION ----------------------------


 * One electron integrals 
 Pre-screening matrix                    ... done
 Shell pair data                         ... done (   0.000 sec)

-------------------------------------------------------------------------------
                                 ORCA SCF
-------------------------------------------------------------------------------

------------
SCF SETTINGS
------------
Hamiltonian:
 Density Functional     Method          .... DFT(GTOs)
 Exchange Functional    Exchange        .... WB97X-D3
 Correlation Functional Correlation     .... WB97X-D3
 Gradients option       PostSCFGGA      .... off
 Hybrid DFT is turned on
   Fraction HF Exchange ScalHFX         ....  0.195728
   Scaling of DF-GGA-X  ScalDFX         ....  0.000000
   Scaling of DF-GGA-C  ScalDFC         ....  1.000000
   Scaling of DF-LDA-C  ScalLDAC        ....  1.000000
   Perturbative correction              ....  0.000000
 Long-range corrected/Screened/Range-Separated Hybrid DFT is turned on
   Amount of maximum screened exact exchange              ....  0.804272
   Range separation parameter mu (erf(mu*r12)/r12)        ....  0.250000


General Settings:
 Integral files         IntName         .... Scan_25
 Hartree-Fock type      HFTyp           .... RHF
 Total Charge           Charge          ....    0
 Multiplicity           Mult            ....    1
 Number of Electrons    NEL             ....   18
 Basis Dimension        Dim             ....   36
 Nuclear Repulsion      ENuc            ....     28.1765441779 Eh

Convergence Acceleration:
 DIIS                   CNVDIIS         .... on
   Start iteration      DIISMaxIt       ....     0
   Startup error        DIISStart       ....  0.200000
   # of expansion vecs  DIISMaxEq       ....     5
   Bias factor          DIISBfac        ....   1.050
   Max. coefficient     DIISMaxC        ....  10.000
 Newton-Raphson         CNVNR           .... off
 SOSCF                  CNVSOSCF        .... off
 Level Shifting         CNVShift        .... off
 Zerner damping         CNVZerner       .... off
 Static damping         CNVDamp         .... off
 Fernandez-Rico         CNVRico         .... off

SCF Procedure:
 Maximum # iterations   MaxIter         ....   999
 SCF integral mode      SCFMode         .... Direct
   Integral package                     .... LIBINT
 Reset frequeny         DirectResetFreq ....    20
 Integral Threshold     Thresh          ....  1.000e-10 Eh
 Primitive CutOff       TCut            ....  1.000e-11 Eh

Convergence Tolerance:
 Convergence Check Mode ConvCheckMode   .... All-Criteria
 Convergence forced     ConvForced      .... 0
 Energy Change          TolE            ....  1.000e-06 Eh
 Max Density Change     TolMaxP         ....  1.000e-05
 RMS Density Change     TolRMSP         ....  1.000e-06
 DIIS Error             TolErr          ....  1.000e-06


Diagonalization of the overlap matrix:
Smallest eigenvalue                        ... 2.975e-02
Time for diagonalization                   ...    0.001 sec
Threshold for overlap eigenvalues          ... 1.000e-08
Number of eigenvalues below threshold      ... 0
Time for construction of square roots      ...    0.020 sec
Total time needed                          ...    0.021 sec

-------------------
DFT GRID GENERATION
-------------------

General Integration Accuracy     IntAcc      ...  4.340
Radial Grid Type                 RadialGrid  ... Gauss-Chebyshev
Angular Grid (max. acc.)         AngularGrid ... Lebedev-110
Angular grid pruning method      GridPruning ... 3 (G Style)
Weight generation scheme         WeightScheme... Becke
Basis function cutoff            BFCut       ...    1.0000e-10
Integration weight cutoff        WCut        ...    1.0000e-14
Grids for H and He will be reduced by one unit

# of grid points (after initial pruning)     ...   6548 (   0.0 sec)
# of grid points (after weights+screening)   ...   6417 (   0.0 sec)
nearest neighbour list constructed           ...    0.0 sec
Grid point re-assignment to atoms done       ...    0.0 sec
Grid point division into batches done        ...    0.0 sec
Reduced shell lists constructed in    0.0 sec

Total number of grid points                  ...     6417
Total number of batches                      ...      104
Average number of points per batch           ...       61
Average number of grid points per atom       ...     1070
Average number of shells per batch           ...    15.97 (79.86%)
Average number of basis functions per batch  ...    29.15 (80.98%)
Average number of large shells per batch     ...    13.63 (85.33%)
Average number of large basis fcns per batch ...    24.09 (82.62%)
Maximum spatial batch extension              ...  20.43, 21.59, 21.59 au
Average spatial batch extension              ...   5.20,  4.79,  4.57 au

Time for grid setup =    0.078 sec

------------------------------
INITIAL GUESS: MODEL POTENTIAL
------------------------------
Loading Hartree-Fock densities                     ... done
Calculating cut-offs                               ... done
Setting up the integral package                    ... done
Initializing the effective Hamiltonian             ... done
Starting the Coulomb interaction                   ... done (   0.0 sec)
Reading the grid                                   ... done
Mapping shells                                     ... done
Starting the XC term evaluation                    ... done (   0.1 sec)
  promolecular density results
     # of electrons  =     17.999937431
     EX              =    -14.309799406
     EC              =     -0.541480775
     EX+EC           =    -14.851280180
Transforming the Hamiltonian                       ... done (   0.1 sec)
Diagonalizing the Hamiltonian                      ... done (   0.0 sec)
Back transforming the eigenvectors                 ... done (   0.0 sec)
Now organizing SCF variables                       ... done
                      ------------------
                      INITIAL GUESS DONE (   0.4 sec)
                      ------------------
--------------
SCF ITERATIONS
--------------
ITER       Energy         Delta-E        Max-DP      RMS-DP      [F,P]   Gradient Norm
               ***  Starting incremental Fock matrix formation  ***
                             ****Resetting KDIIS****
                             ****Turning on KDIIS(Cayley)****
  0   -115.1733997618   0.000000000000 0.07282397  0.00437470  0.2266254   0.171006087
  1   -115.2675447181  -0.094144956321 0.04284367  0.00333531  0.1686457   0.128037504
  2   -115.3223025176  -0.054757799457 0.09836192  0.00734175  0.1315415   0.102000231
  3   -115.4088295068  -0.086526989251 0.18092363  0.01187831  0.0800207   0.056189731
  4   -115.4456768538  -0.036847346954 0.13513035  0.00824864  0.0506350   0.042998721
  5   -115.4438617464   0.001815107422 0.02562977  0.00250912  0.0562107   0.022586726
  6   -115.4537169669  -0.009855220485 0.02518284  0.00341988  0.0399669   0.014147500
  7   -115.4585834913  -0.004866524442 0.01870161  0.00191354  0.0280031   0.012604143
  8   -115.4601176137  -0.001534122363 0.06133566  0.00504529  0.0301202   0.010809832
  9   -115.4641365232  -0.004018909509 0.01312080  0.00140627  0.0086204   0.004135064
 10   -115.4648842339  -0.000747710701 0.00413829  0.00051273  0.0011660   0.001398532
 11   -115.4649059448  -0.000021710894 0.00212153  0.00023794  0.0014869   0.000765299
 12   -115.4649200482  -0.000014103423 0.00022534  0.00002815  0.0001697   0.000095949
                          ***Energy convergence achieved***
 13   -115.4649203084  -0.000000260209 0.00005838  0.00000649  0.0000197   0.000019822

            ***Energy convergence in two consecutive cycles with***
                    ***'reasonable' density convergence***
                       *** signaling convergence ***

                    *** KDIIS BlockDiag ( 0.000 sec) ***

               *****************************************************
               *                     SUCCESS                       *
               *           SCF CONVERGED AFTER  14 CYCLES          *
               *****************************************************

Setting up the final grid:

General Integration Accuracy     IntAcc      ...  4.670
Radial Grid Type                 RadialGrid  ... Gauss-Chebyshev
Angular Grid (max. acc.)         AngularGrid ... Lebedev-302
Angular grid pruning method      GridPruning ... 3 (G Style)
Weight generation scheme         WeightScheme... Becke
Basis function cutoff            BFCut       ...    1.0000e-10
Integration weight cutoff        WCut        ...    1.0000e-14
Grids for H and He will be reduced by one unit

# of grid points (after initial pruning)     ...  26000 (   0.0 sec)
# of grid points (after weights+screening)   ...  25397 (   0.1 sec)
nearest neighbour list constructed           ...    0.0 sec
Grid point re-assignment to atoms done       ...    0.0 sec
Grid point division into batches done        ...    0.2 sec
Reduced shell lists constructed in    0.5 sec

Total number of grid points                  ...    25397
Total number of batches                      ...      401
Average number of points per batch           ...       63
Average number of grid points per atom       ...     4233
Average number of shells per batch           ...    14.42 (72.10%)
Average number of basis functions per batch  ...    26.25 (72.92%)
Average number of large shells per batch     ...    12.12 (84.06%)
Average number of large basis fcns per batch ...    21.30 (81.14%)
Maximum spatial batch extension              ...  19.37, 20.64, 20.64 au
Average spatial batch extension              ...   3.15,  3.11,  3.09 au

Final grid set up in    0.7 sec
Final integration                            ... done (   0.7 sec)
Change in XC energy                          ...    -0.000288582
Integrated number of electrons               ...    17.999979106
Previous integrated no of electrons          ...    18.002656209

----------------
TOTAL SCF ENERGY
----------------

Total Energy       :         -115.46520890 Eh           -3141.96807 eV

Components:
Nuclear Repulsion  :           28.17654418 Eh             766.72275 eV
Electronic Energy  :         -143.64175308 Eh           -3908.69082 eV
One Electron Energy:         -213.01261096 Eh           -5796.36783 eV
Two Electron Energy:           69.37085788 Eh            1887.67701 eV

Virial components:
Potential Energy   :         -230.20705588 Eh           -6264.25246 eV
Kinetic Energy     :          114.74184698 Eh            3122.28439 eV
Virial Ratio       :            2.00630426


DFT components:
N(Alpha)           :        8.999989553194 electrons
N(Beta)            :        8.999989553194 electrons
N(Total)           :       17.999979106388 electrons
E(XC)              :      -10.520122383011 Eh       

---------------
SCF CONVERGENCE
---------------

  Last Energy change         ...   -7.2808e-09  Tolerance :   1.0000e-06
  Last MAX-Density change    ...    1.7794e-05  Tolerance :   1.0000e-05
  Last RMS-Density change    ...    1.5343e-06  Tolerance :   1.0000e-06
  Last DIIS Error            ...    1.0734e-05  Tolerance :   1.0000e-06

             **** THE GBW FILE WAS UPDATED (Scan_25.gbw) ****
             **** DENSITY FILE WAS UPDATED (Scan_25.scfp.tmp) ****
             **** ENERGY FILE WAS UPDATED (Scan_25.en.tmp) ****
----------------
ORBITAL ENERGIES
----------------

  NO   OCC          E(Eh)            E(eV) 
   0   2.0000     -19.185111      -522.0534 
   1   2.0000     -10.379678      -282.4454 
   2   2.0000      -0.984332       -26.7850 
   3   2.0000      -0.845213       -22.9994 
   4   2.0000      -0.576991       -15.7007 
   5   2.0000      -0.575135       -15.6502 
   6   2.0000      -0.457166       -12.4401 
   7   2.0000      -0.311790        -8.4842 
   8   2.0000      -0.295674        -8.0457 
   9   0.0000      -0.082066        -2.2331 
  10   0.0000       0.185965         5.0604 
  11   0.0000       0.243757         6.6330 
  12   0.0000       0.246055         6.6955 
  13   0.0000       0.251357         6.8398 
  14   0.0000       0.594023        16.1642 
  15   0.0000       0.598799        16.2941 
  16   0.0000       0.631821        17.1927 
  17   0.0000       0.737604        20.0712 
  18   0.0000       0.977005        26.5857 
  19   0.0000       0.980141        26.6710 
  20   0.0000       0.998472        27.1698 
  21   0.0000       1.022218        27.8160 
  22   0.0000       1.072155        29.1748 
  23   0.0000       1.090384        29.6708 
  24   0.0000       1.270596        34.5747 
  25   0.0000       1.454398        39.5762 
  26   0.0000       1.698527        46.2193 
  27   0.0000       1.699388        46.2427 
  28   0.0000       1.940090        52.7925 
  29   0.0000       1.942361        52.8543 
  30   0.0000       1.992311        54.2135 
  31   0.0000       1.996169        54.3185 
  32   0.0000       2.095448        57.0200 
  33   0.0000       2.241886        61.0048 
  34   0.0000       2.245210        61.0953 
  35   0.0000       2.651940        72.1630 

                    ********************************
                    * MULLIKEN POPULATION ANALYSIS *
                    ********************************

-----------------------
MULLIKEN ATOMIC CHARGES
-----------------------
   0 C :   -0.416843
   1 O :   -0.709674
   2 H :    0.244229
   3 H :    0.244210
   4 H :    0.256262
   5 H :    0.381816
Sum of atomic charges:   -0.0000000

--------------------------------
MULLIKEN REDUCED ORBITAL CHARGES
--------------------------------
  0 C s       :     3.430662  s :     3.430662
      pz      :     1.146771  p :     2.964547
      px      :     0.672145
      py      :     1.145631
      dz2     :     0.007553  d :     0.021634
      dxz     :     0.000107
      dyz     :     0.008406
      dx2y2   :     0.005467
      dxy     :     0.000101
  1 O s       :     3.950065  s :     3.950065
      pz      :     1.693816  p :     4.744567
      px      :     1.303310
      py      :     1.747442
      dz2     :     0.000905  d :     0.015041
      dxz     :     0.005328
      dyz     :     0.003786
      dx2y2   :     0.000487
      dxy     :     0.004535
  2 H s       :     0.755771  s :     0.755771
  3 H s       :     0.755790  s :     0.755790
  4 H s       :     0.743738  s :     0.743738
  5 H s       :     0.618184  s :     0.618184


                     *******************************
                     * LOEWDIN POPULATION ANALYSIS *
                     *******************************

----------------------
LOEWDIN ATOMIC CHARGES
----------------------
   0 C :   -0.208188
   1 O :   -0.604102
   2 H :    0.176486
   3 H :    0.176522
   4 H :    0.182368
   5 H :    0.276913

-------------------------------
LOEWDIN REDUCED ORBITAL CHARGES
-------------------------------
  0 C s       :     3.131644  s :     3.131644
      pz      :     1.184751  p :     3.042095
      px      :     0.673212
      py      :     1.184132
      dz2     :     0.012346  d :     0.034448
      dxz     :     0.000191
      dyz     :     0.014319
      dx2y2   :     0.007426
      dxy     :     0.000166
  1 O s       :     3.795801  s :     3.795801
      pz      :     1.708489  p :     4.787962
      px      :     1.319819
      py      :     1.759654
      dz2     :     0.000947  d :     0.020339
      dxz     :     0.007461
      dyz     :     0.004922
      dx2y2   :     0.000693
      dxy     :     0.006316
  2 H s       :     0.823514  s :     0.823514
  3 H s       :     0.823478  s :     0.823478
  4 H s       :     0.817632  s :     0.817632
  5 H s       :     0.723087  s :     0.723087


                      *****************************
                      * MAYER POPULATION ANALYSIS *
                      *****************************

  NA   - Mulliken gross atomic population
  ZA   - Total nuclear charge
  QA   - Mulliken gross atomic charge
  VA   - Mayer's total valence
  BVA  - Mayer's bonded valence
  FA   - Mayer's free valence

  ATOM       NA         ZA         QA         VA         BVA        FA
  0 C      6.4168     6.0000    -0.4168     3.6586     3.6586    -0.0000
  1 O      8.7097     8.0000    -0.7097     1.7045     1.7045     0.0000
  2 H      0.7558     1.0000     0.2442     0.9146     0.9146    -0.0000
  3 H      0.7558     1.0000     0.2442     0.9145     0.9145    -0.0000
  4 H      0.7437     1.0000     0.2563     0.9111     0.9111    -0.0000
  5 H      0.6182     1.0000     0.3818     0.8128     0.8128     0.0000

  Mayer bond orders larger than 0.1
B(  0-C ,  1-O ) :   0.8919 B(  0-C ,  2-H ) :   0.9226 B(  0-C ,  3-H ) :   0.9224 
B(  0-C ,  4-H ) :   0.9192 B(  1-O ,  5-H ) :   0.8101 

-------
TIMINGS
-------

Total SCF time: 0 days 0 hours 0 min 18 sec 

Total time                  ....      18.407 sec
Sum of individual times     ....      17.593 sec  ( 95.6%)

Fock matrix formation       ....      16.409 sec  ( 89.1%)
  XC integration            ....       3.853 sec  ( 23.5% of F)
    Basis function eval.    ....       1.025 sec  ( 26.6% of XC)
    Density eval.           ....       0.205 sec  (  5.3% of XC)
    XC-Functional eval.     ....       1.176 sec  ( 30.5% of XC)
    XC-Potential eval.      ....       0.069 sec  (  1.8% of XC)
Diagonalization             ....       0.091 sec  (  0.5%)
Density matrix formation    ....       0.000 sec  (  0.0%)
Population analysis         ....       0.011 sec  (  0.1%)
Initial guess               ....       0.332 sec  (  1.8%)
Orbital Transformation      ....       0.000 sec  (  0.0%)
Orbital Orthonormalization  ....       0.000 sec  (  0.0%)
DIIS solution               ....       0.000 sec  (  0.0%)
Grid generation             ....       0.750 sec  (  4.1%)


-------------------------------------------------------------------------------
                          DFT DISPERSION CORRECTION                            
                                                                               
                              DFTD3 V3.1  Rev 1                                
                              USING zero damping                               
-------------------------------------------------------------------------------
The omegaB97X-D3 functional is recognized. Fit by Chai et al.
Active option DFTDOPT                   ...         3   

molecular C6(AA) [au] = 243.624804 


            DFT-D V3
 parameters
 s6 scaling factor         :     1.0000 
 rs6 scaling factor        :     1.2810 
 s8 scaling factor         :     1.0000 
 rs8 scaling factor        :     1.0940 
 Damping factor alpha6     :    14.0000 
 Damping factor alpha8     :    16.0000 
 ad hoc parameters k1-k3   :    16.0000     1.3333    -4.0000 

 Edisp/kcal,au: -0.439477195638  -0.000700351416 
 E6   /kcal   :  -0.205248810 
 E8   /kcal   :  -0.234228385 
 % E8         :  53.297051050 

-------------------------   ----------------
Dispersion correction           -0.000700351
-------------------------   ----------------


-------------------------   --------------------
FINAL SINGLE POINT ENERGY      -115.465909249522
-------------------------   --------------------


                            ***************************************
                            *     ORCA property calculations      *
                            ***************************************

                                    ---------------------
                                    Active property flags
                                    ---------------------
   (+) Dipole Moment


------------------------------------------------------------------------------
                       ORCA ELECTRIC PROPERTIES CALCULATION
------------------------------------------------------------------------------

Dipole Moment Calculation                       ... on
Quadrupole Moment Calculation                   ... off
Polarizability Calculation                      ... off
GBWName                                         ... Scan_25.gbw
Electron density file                           ... Scan_25.scfp.tmp

-------------
DIPOLE MOMENT
-------------
                                X             Y             Z
Electronic contribution:      1.07989      -0.09813      -0.11407
Nuclear contribution   :     -2.48711       0.41175       0.46689
                        -----------------------------------------
Total Dipole Moment    :     -1.40722       0.31363       0.35282
                        -----------------------------------------
Magnitude (a.u.)       :      1.48429
Magnitude (Debye)      :      3.77277


Timings for individual modules:

Sum of individual times         ...       19.652 sec (=   0.328 min)
GTO integral calculation        ...        1.122 sec (=   0.019 min)   5.7 %
SCF iterations                  ...       18.530 sec (=   0.309 min)  94.3 %
                             ****ORCA TERMINATED NORMALLY****
TOTAL RUN TIME: 0 days 0 hours 0 minutes 21 seconds 182 msec
