
                                 *****************
                                 * O   R   C   A *
                                 *****************

           --- An Ab Initio, DFT and Semiempirical electronic structure package ---

                  #######################################################
                  #                        -***-                        #
                  #  Department of molecular theory and spectroscopy    #
                  #              Directorship: Frank Neese              #
                  # Max Planck Institute for Chemical Energy Conversion #
                  #                  D-45470 Muelheim/Ruhr              #
                  #                       Germany                       #
                  #                                                     #
                  #                  All rights reserved                #
                  #                        -***-                        #
                  #######################################################


                         Program Version 4.0.0.2 - RELEASE -


 With contributions from (in alphabetic order):
   Daniel Aravena         : Magnetic Properties
   Michael Atanasov       : Ab Initio Ligand Field Theory
   Ute Becker             : Parallelization
   Martin Brehm           : Molecular dynamics
   Dmytro Bykov           : SCF Hessian
   Vijay G. Chilkuri      : MRCI spin determinant printing
   Dipayan Datta          : RHF DLPNO-CCSD density
   Achintya Kumar Dutta   : EOM-CC, STEOM-CC
   Dmitry Ganyushin       : Spin-Orbit,Spin-Spin,Magnetic field MRCI
   Yang Guo               : DLPNO-NEVPT2, CIM, IAO-localization
   Andreas Hansen         : Spin unrestricted coupled pair/coupled cluster methods
   Lee Huntington         : MR-EOM, pCC
   Robert Izsak           : Overlap fitted RIJCOSX, COSX-SCS-MP3, EOM
   Christian Kollmar      : KDIIS, OOCD, Brueckner-CCSD(T), CCSD density
   Simone Kossmann        : Meta GGA functionals, TD-DFT gradient, OOMP2, MP2 Hessian
   Martin Krupicka        : AUTO-CI
   Dagmar Lenk            : GEPOL surface
   Dimitrios Liakos       : Extrapolation schemes; parallel MDCI
   Dimitrios Manganas     : ROCIS; embedding schemes
   Dimitrios Pantazis     : SARC Basis sets
   Taras Petrenko         : DFT Hessian,TD-DFT gradient, ASA, ECA, R-Raman, ABS, FL, XAS/XES, NRVS
   Peter Pinski           : DLPNO-MP2
   Christoph Reimann      : Effective Core Potentials
   Marius Retegan         : Local ZFS, SOC
   Christoph Riplinger    : Optimizer, TS searches, QM/MM, DLPNO-CCSD(T), (RO)-DLPNO pert. Triples
   Tobias Risthaus        : Range-separated hybrids, TD-DFT gradient, RPA, STAB
   Michael Roemelt        : Restricted open shell CIS
   Masaaki Saitow         : Open-shell DLPNO
   Barbara Sandhoefer     : DKH picture change effects
   Kantharuban Sivalingam : CASSCF convergence, NEVPT2, FIC-MRCI
   Georgi Stoychev        : AutoAux
   Boris Wezisla          : Elementary symmetry handling
   Frank Wennmohs         : Technical directorship


 We gratefully acknowledge several colleagues who have allowed us to
 interface, adapt or use parts of their codes:
   Stefan Grimme, W. Hujo, H. Kruse,             : VdW corrections, initial TS optimization,
                  C. Bannwarth                     DFT functionals, gCP, sTDA/sTD-DF
   Ed Valeev                                     : LibInt (2-el integral package), F12 methods
   Garnet Chan, S. Sharma, J. Yang, R. Olivares  : DMRG
   Ulf Ekstrom                                   : XCFun DFT Library
   Mihaly Kallay                                 : mrcc  (arbitrary order and MRCC methods)
   Jiri Pittner, Ondrej Demel                    : Mk-CCSD
   Frank Weinhold                                : gennbo (NPA and NBO analysis)
   Christopher J. Cramer and Donald G. Truhlar   : smd solvation model


 Your calculation uses the libint2 library for the computation of 2-el integrals
 For citations please refer to: http://libint.valeyev.net

 This ORCA versions uses:
   CBLAS   interface :  Fast vector & matrix operations
   LAPACKE interface :  Fast linear algebra routines
   SCALAPACK package :  Parallel linear algebra routines


Your calculation utilizes the atom-pairwise dispersion correction
with the zero-damping scheme (D30)
Cite in your paper:
S.Grimme, J.Antony, S.Ehrlich and H.Krieg, J.Chem.Phys., 132, (2010), 154104 
   

XCFun DFT library Copyright 2009-2010 Ulf Ekstrom and contributors.
See http://admol.org/xcfun for more information. This is free soft-
ware; see the source code for copying conditions. There is ABSOLUTELY
NO WARRANTY; not even for MERCHANTABILITY or FITNESS FOR A PARTICULAR
PURPOSE. For details see the documentation. Scientific users of this 
library should cite U. Ekstrom, L. Visscher, R. Bast, A. J. Thorvald-
sen and K. Ruud; J.Chem.Theor.Comp. 2010, DOI: 10.1021/ct100117s
XCFun Version 0.99 
Your calculation utilizes the basis: 6-31G(d)
   H-He, Li-Ne : W. J. Hehre, R. Ditchfield and J.A. Pople, J. Chem. Phys. 56, 2257 (1972).
                 Note: He and Ne are unpublished basis sets taken from the Gaussian program.
                 Note: Li and B from J. D. Dill and J. A. Pople, J. Chem. Phys. 62, 2921 (1975).
   Na - Ar     : M. M. Francl, W. J. Pietro, W. J. Hehre, J. S. Binkley, M. S. Gordon, 
                 D. J. DeFrees and J. A. Pople, J. Chem. Phys. 77, 3654 (1982).
   K - Zn      : V. A. Rassolov, J. A. Pople, M. A. Ratner, and T. L. Windus, J. Chem. Phys. 109, 1223 (1998).

================================================================================
                                        WARNINGS
                       Please study these warnings very carefully!
================================================================================

Warning: TCutStore was < 0. Adjusted to Thresh (uncritical)

INFO   : the flag for use of LIBINT has been found!

================================================================================
                                       INPUT FILE
================================================================================
NAME = initial28.inp
|  1> ! WB97X-D3 6-31G(d) VerySlowConv
|  2> ! KDIIS NOSOSCF
|  3> %base "Scan_28"
|  4> 
|  5> %scf
|  6> maxiter 999
|  7> end
|  8> 
|  9> * xyz 0 1
| 10> C         -4.890925344638    2.433742721077    0.139919883484
| 11> O         -1.636403349140    2.330357137722    0.008516660821
| 12> H         -5.430531564327    3.141460390407   -0.456114910538
| 13> H         -5.423805205732    1.769639486780    0.789767687443
| 14> H         -3.816130772341    2.392969898630    0.089224655501
| 15> H         -0.689313763822    2.423460365383    0.105686023289
| 16> **                         ****END OF INPUT****
================================================================================

                       ****************************
                       * Single Point Calculation *
                       ****************************

---------------------------------
CARTESIAN COORDINATES (ANGSTROEM)
---------------------------------
  C     -4.890925    2.433743    0.139920
  O     -1.636403    2.330357    0.008517
  H     -5.430532    3.141460   -0.456115
  H     -5.423805    1.769639    0.789768
  H     -3.816131    2.392970    0.089225
  H     -0.689314    2.423460    0.105686

----------------------------
CARTESIAN COORDINATES (A.U.)
----------------------------
  NO LB      ZA    FRAG     MASS         X           Y           Z
   0 C     6.0000    0    12.011   -9.242509    4.599107    0.264410
   1 O     8.0000    0    15.999   -3.092354    4.403737    0.016094
   2 H     1.0000    0     1.008  -10.262217    5.936500   -0.861932
   3 H     1.0000    0     1.008  -10.249506    3.344134    1.492445
   4 H     1.0000    0     1.008   -7.211442    4.522058    0.168610
   5 H     1.0000    0     1.008   -1.302614    4.579676    0.199718

--------------------------------
INTERNAL COORDINATES (ANGSTROEM)
--------------------------------
 C      0   0   0     0.000000000000     0.00000000     0.00000000
 O      1   0   0     3.258814018159     0.00000000     0.00000000
 H      1   2   0     1.071119343254   120.10843399     0.00000000
 H      1   2   3     1.071119143921   120.10835293   180.87678305
 H      1   2   4     1.076761720080     0.52405001   269.56362516
 H      2   1   3     0.956602727689   168.98218004    89.51253109

---------------------------
INTERNAL COORDINATES (A.U.)
---------------------------
 C      0   0   0     0.000000000000     0.00000000     0.00000000
 O      1   0   0     6.158266015705     0.00000000     0.00000000
 H      1   2   0     2.024122215496   120.10843399     0.00000000
 H      1   2   3     2.024121838810   120.10835293   180.87678305
 H      1   2   4     2.034784762441     0.52405001   269.56362516
 H      2   1   3     1.807717174293   168.98218004    89.51253109

---------------------
BASIS SET INFORMATION
---------------------
There are 3 groups of distinct atoms

 Group   1 Type C   : 10s4p1d contracted to 3s2p1d pattern {631/31/1}
 Group   2 Type O   : 10s4p1d contracted to 3s2p1d pattern {631/31/1}
 Group   3 Type H   : 4s contracted to 2s pattern {31}

Atom   0C    basis set group =>   1
Atom   1O    basis set group =>   2
Atom   2H    basis set group =>   3
Atom   3H    basis set group =>   3
Atom   4H    basis set group =>   3
Atom   5H    basis set group =>   3
------------------------------------------------------------------------------
                           ORCA GTO INTEGRAL CALCULATION
------------------------------------------------------------------------------

                         BASIS SET STATISTICS AND STARTUP INFO

 # of primitive gaussian shells          ...   46
 # of primitive gaussian functions       ...   70
 # of contracted shells                  ...   20
 # of contracted basis functions         ...   36
 Highest angular momentum                ...    2
 Maximum contraction depth               ...    6
 Integral package used                   ... LIBINT
 Integral threshhold            Thresh   ...  1.000e-10
 Primitive cut-off              TCut     ...  1.000e-11


------------------------------ INTEGRAL EVALUATION ----------------------------


 * One electron integrals 
 Pre-screening matrix                    ... done
 Shell pair data                         ... done (   0.000 sec)

-------------------------------------------------------------------------------
                                 ORCA SCF
-------------------------------------------------------------------------------

------------
SCF SETTINGS
------------
Hamiltonian:
 Density Functional     Method          .... DFT(GTOs)
 Exchange Functional    Exchange        .... WB97X-D3
 Correlation Functional Correlation     .... WB97X-D3
 Gradients option       PostSCFGGA      .... off
 Hybrid DFT is turned on
   Fraction HF Exchange ScalHFX         ....  0.195728
   Scaling of DF-GGA-X  ScalDFX         ....  0.000000
   Scaling of DF-GGA-C  ScalDFC         ....  1.000000
   Scaling of DF-LDA-C  ScalLDAC        ....  1.000000
   Perturbative correction              ....  0.000000
 Long-range corrected/Screened/Range-Separated Hybrid DFT is turned on
   Amount of maximum screened exact exchange              ....  0.804272
   Range separation parameter mu (erf(mu*r12)/r12)        ....  0.250000


General Settings:
 Integral files         IntName         .... Scan_28
 Hartree-Fock type      HFTyp           .... RHF
 Total Charge           Charge          ....    0
 Multiplicity           Mult            ....    1
 Number of Electrons    NEL             ....   18
 Basis Dimension        Dim             ....   36
 Nuclear Repulsion      ENuc            ....     27.2021986251 Eh

Convergence Acceleration:
 DIIS                   CNVDIIS         .... on
   Start iteration      DIISMaxIt       ....     0
   Startup error        DIISStart       ....  0.200000
   # of expansion vecs  DIISMaxEq       ....     5
   Bias factor          DIISBfac        ....   1.050
   Max. coefficient     DIISMaxC        ....  10.000
 Newton-Raphson         CNVNR           .... off
 SOSCF                  CNVSOSCF        .... off
 Level Shifting         CNVShift        .... off
 Zerner damping         CNVZerner       .... off
 Static damping         CNVDamp         .... off
 Fernandez-Rico         CNVRico         .... off

SCF Procedure:
 Maximum # iterations   MaxIter         ....   999
 SCF integral mode      SCFMode         .... Direct
   Integral package                     .... LIBINT
 Reset frequeny         DirectResetFreq ....    20
 Integral Threshold     Thresh          ....  1.000e-10 Eh
 Primitive CutOff       TCut            ....  1.000e-11 Eh

Convergence Tolerance:
 Convergence Check Mode ConvCheckMode   .... All-Criteria
 Convergence forced     ConvForced      .... 0
 Energy Change          TolE            ....  1.000e-06 Eh
 Max Density Change     TolMaxP         ....  1.000e-05
 RMS Density Change     TolRMSP         ....  1.000e-06
 DIIS Error             TolErr          ....  1.000e-06


Diagonalization of the overlap matrix:
Smallest eigenvalue                        ... 2.337e-02
Time for diagonalization                   ...    0.001 sec
Threshold for overlap eigenvalues          ... 1.000e-08
Number of eigenvalues below threshold      ... 0
Time for construction of square roots      ...    0.004 sec
Total time needed                          ...    0.005 sec

-------------------
DFT GRID GENERATION
-------------------

General Integration Accuracy     IntAcc      ...  4.340
Radial Grid Type                 RadialGrid  ... Gauss-Chebyshev
Angular Grid (max. acc.)         AngularGrid ... Lebedev-110
Angular grid pruning method      GridPruning ... 3 (G Style)
Weight generation scheme         WeightScheme... Becke
Basis function cutoff            BFCut       ...    1.0000e-10
Integration weight cutoff        WCut        ...    1.0000e-14
Grids for H and He will be reduced by one unit

# of grid points (after initial pruning)     ...   6548 (   0.0 sec)
# of grid points (after weights+screening)   ...   6403 (   0.0 sec)
nearest neighbour list constructed           ...    0.0 sec
Grid point re-assignment to atoms done       ...    0.0 sec
Grid point division into batches done        ...    0.0 sec
Reduced shell lists constructed in    0.0 sec

Total number of grid points                  ...     6403
Total number of batches                      ...      103
Average number of points per batch           ...       62
Average number of grid points per atom       ...     1067
Average number of shells per batch           ...    15.26 (76.30%)
Average number of basis functions per batch  ...    27.36 (75.99%)
Average number of large shells per batch     ...    12.95 (84.88%)
Average number of large basis fcns per batch ...    23.09 (84.39%)
Maximum spatial batch extension              ...  19.05, 20.95, 25.60 au
Average spatial batch extension              ...   4.18,  5.39,  5.44 au

Time for grid setup =    0.048 sec

------------------------------
INITIAL GUESS: MODEL POTENTIAL
------------------------------
Loading Hartree-Fock densities                     ... done
Calculating cut-offs                               ... done
Setting up the integral package                    ... done
Initializing the effective Hamiltonian             ... done
Starting the Coulomb interaction                   ... done (   0.0 sec)
Reading the grid                                   ... done
Mapping shells                                     ... done
Starting the XC term evaluation                    ... done (   0.0 sec)
  promolecular density results
     # of electrons  =     18.002959773
     EX              =    -14.310975684
     EC              =     -0.542323689
     EX+EC           =    -14.853299373
Transforming the Hamiltonian                       ... done (   0.0 sec)
Diagonalizing the Hamiltonian                      ... done (   0.0 sec)
Back transforming the eigenvectors                 ... done (   0.0 sec)
Now organizing SCF variables                       ... done
                      ------------------
                      INITIAL GUESS DONE (   0.2 sec)
                      ------------------
--------------
SCF ITERATIONS
--------------
ITER       Energy         Delta-E        Max-DP      RMS-DP      [F,P]   Gradient Norm
               ***  Starting incremental Fock matrix formation  ***
                             ****Resetting KDIIS****
                             ****Turning on KDIIS(Cayley)****
  0   -115.1384349654   0.000000000000 0.06082008  0.00449273  0.2555361   0.173997519
  1   -115.2261158651  -0.087680899644 0.03953734  0.00411090  0.1982017   0.133625634
  2   -115.2740732053  -0.047957340215 0.06277333  0.00684440  0.1555057   0.106664965
  3   -115.3301077963  -0.056034590974 0.09534992  0.00994041  0.0851695   0.062852567
  4   -115.3617799160  -0.031672119702 0.11834094  0.01048896  0.0301549   0.014661813
  5   -115.3547728113   0.007007104643 0.14210729  0.01294728  0.0290375   0.019339857
  6   -115.3370679820   0.017704829289 0.24262740  0.01953599  0.0452019   0.035720120
  7   -115.3479444287  -0.010876446650 0.13299040  0.01170201  0.0384214   0.029537664
  8   -115.3560514944  -0.008107065693 0.01567564  0.00163450  0.0038645   0.004286783
  9   -115.3562528295  -0.000201335151 0.00664523  0.00080375  0.0051485   0.003912471
 10   -115.3563393702  -0.000086540635 0.01163187  0.00094404  0.0014314   0.000938856
 11   -115.3563909250  -0.000051554798 0.00065604  0.00005811  0.0009908   0.000647761
 12   -115.3563961623  -0.000005237386 0.00260615  0.00025806  0.0010100   0.000675211
 13   -115.3563719963   0.000024166081 0.00297851  0.00022064  0.0008995   0.000559086
 14   -115.3563845379  -0.000012541635 0.00067937  0.00007084  0.0010039   0.000535146
 15   -115.3563889421  -0.000004404231 0.00126783  0.00012500  0.0010461   0.000695113
 16   -115.3564006778  -0.000011735680 0.00249952  0.00030259  0.0011106   0.000661866
 17   -115.3563671417   0.000033536135 0.00399644  0.00034181  0.0008498   0.000493710
 18   -115.3563637455   0.000003396151 0.00116149  0.00009245  0.0007617   0.000461116
 19   -115.3563677828  -0.000004037235 0.00160740  0.00018134  0.0007774   0.000534759
               *** Restarting incremental Fock matrix formation ***
                             ****Resetting KDIIS****
 20   -115.3563794384  -0.000011655640 0.00016954  0.00002168  0.0009157   0.000598911
 21   -115.3563826742  -0.000003235804 0.00035793  0.00003294  0.0009361   0.000575522
 22   -115.3563808744   0.000001799843 0.00104915  0.00007492  0.0009223   0.000492091
 23   -115.3563742267   0.000006647665 0.00394098  0.00039277  0.0008811   0.000437494
 24   -115.3563376602   0.000036566487 0.00298287  0.00027829  0.0004380   0.000366596
 25   -115.3563273999   0.000010260309 0.00133509  0.00013534  0.0003136   0.000240477
                          ***Energy convergence achieved***
 26   -115.3563280859  -0.000000685967 0.00227073  0.00020999  0.0002104   0.000119701
 27   -115.3563290421  -0.000000956280 0.00028921  0.00002708  0.0000495   0.000040260
 28   -115.3563290878  -0.000000045618 0.00032792  0.00002494  0.0000489   0.000037048
 29   -115.3563291119  -0.000000024083 0.00019421  0.00001760  0.0000301   0.000024896

            ***Energy convergence in two consecutive cycles with***
                    ***'reasonable' density convergence***
                       *** signaling convergence ***

                    *** KDIIS BlockDiag ( 0.000 sec) ***

               *****************************************************
               *                     SUCCESS                       *
               *           SCF CONVERGED AFTER  30 CYCLES          *
               *****************************************************

Setting up the final grid:

General Integration Accuracy     IntAcc      ...  4.670
Radial Grid Type                 RadialGrid  ... Gauss-Chebyshev
Angular Grid (max. acc.)         AngularGrid ... Lebedev-302
Angular grid pruning method      GridPruning ... 3 (G Style)
Weight generation scheme         WeightScheme... Becke
Basis function cutoff            BFCut       ...    1.0000e-10
Integration weight cutoff        WCut        ...    1.0000e-14
Grids for H and He will be reduced by one unit

# of grid points (after initial pruning)     ...  26000 (   0.0 sec)
# of grid points (after weights+screening)   ...  25396 (   0.0 sec)
nearest neighbour list constructed           ...    0.0 sec
Grid point re-assignment to atoms done       ...    0.0 sec
Grid point division into batches done        ...    0.1 sec
Reduced shell lists constructed in    0.2 sec

Total number of grid points                  ...    25396
Total number of batches                      ...      400
Average number of points per batch           ...       63
Average number of grid points per atom       ...     4233
Average number of shells per batch           ...    13.78 (68.90%)
Average number of basis functions per batch  ...    24.55 (68.19%)
Average number of large shells per batch     ...    11.51 (83.53%)
Average number of large basis fcns per batch ...    20.50 (83.50%)
Maximum spatial batch extension              ...  20.15, 20.64, 20.64 au
Average spatial batch extension              ...   2.90,  3.31,  3.32 au

Final grid set up in    0.2 sec
Final integration                            ... done (   0.2 sec)
Change in XC energy                          ...    -0.000672521
Integrated number of electrons               ...    17.999987548
Previous integrated no of electrons          ...    17.999679037

----------------
TOTAL SCF ENERGY
----------------

Total Energy       :         -115.35700165 Eh           -3139.02360 eV

Components:
Nuclear Repulsion  :           27.20219863 Eh             740.20946 eV
Electronic Energy  :         -142.55920028 Eh           -3879.23306 eV
One Electron Energy:         -211.60864254 Eh           -5758.16390 eV
Two Electron Energy:           69.04944226 Eh            1878.93085 eV

Virial components:
Potential Energy   :         -230.15408376 Eh           -6262.81101 eV
Kinetic Energy     :          114.79708211 Eh            3123.78741 eV
Virial Ratio       :            2.00487747


DFT components:
N(Alpha)           :        8.999993773900 electrons
N(Beta)            :        8.999993773900 electrons
N(Total)           :       17.999987547800 electrons
E(XC)              :      -10.584244608502 Eh       

---------------
SCF CONVERGENCE
---------------

  Last Energy change         ...   -2.0781e-08  Tolerance :   1.0000e-06
  Last MAX-Density change    ...    6.0742e-05  Tolerance :   1.0000e-05
  Last RMS-Density change    ...    7.5395e-06  Tolerance :   1.0000e-06
  Last DIIS Error            ...    3.2171e-05  Tolerance :   1.0000e-06

             **** THE GBW FILE WAS UPDATED (Scan_28.gbw) ****
             **** DENSITY FILE WAS UPDATED (Scan_28.scfp.tmp) ****
             **** ENERGY FILE WAS UPDATED (Scan_28.en.tmp) ****
----------------
ORBITAL ENERGIES
----------------

  NO   OCC          E(Eh)            E(eV) 
   0   2.0000     -18.955491      -515.8051 
   1   2.0000     -10.545183      -286.9490 
   2   2.0000      -0.976873       -26.5821 
   3   2.0000      -0.788595       -21.4588 
   4   2.0000      -0.713014       -19.4021 
   5   2.0000      -0.685903       -18.6644 
   6   2.0000      -0.289506        -7.8779 
   7   2.0000      -0.126462        -3.4412 
   8   2.0000      -0.126118        -3.4318 
   9   0.0000      -0.197156        -5.3649 
  10   0.0000       0.103317         2.8114 
  11   0.0000       0.147236         4.0065 
  12   0.0000       0.249194         6.7809 
  13   0.0000       0.382078        10.3969 
  14   0.0000       0.497291        13.5320 
  15   0.0000       0.512436        13.9441 
  16   0.0000       0.521739        14.1972 
  17   0.0000       0.655211        17.8292 
  18   0.0000       0.859679        23.3930 
  19   0.0000       0.892156        24.2768 
  20   0.0000       1.009038        27.4573 
  21   0.0000       1.161763        31.6132 
  22   0.0000       1.228771        33.4366 
  23   0.0000       1.230442        33.4820 
  24   0.0000       1.544103        42.0172 
  25   0.0000       1.546638        42.0862 
  26   0.0000       1.602014        43.5930 
  27   0.0000       1.652332        44.9622 
  28   0.0000       1.968015        53.5524 
  29   0.0000       2.098948        57.1153 
  30   0.0000       2.106857        57.3305 
  31   0.0000       2.117036        57.6075 
  32   0.0000       2.122892        57.7668 
  33   0.0000       2.180545        59.3357 
  34   0.0000       2.180660        59.3388 
  35   0.0000       2.818536        76.6963 

                    ********************************
                    * MULLIKEN POPULATION ANALYSIS *
                    ********************************

-----------------------
MULLIKEN ATOMIC CHARGES
-----------------------
   0 C :   -0.121610
   1 O :   -1.143261
   2 H :    0.300201
   3 H :    0.300146
   4 H :    0.374969
   5 H :    0.289556
Sum of atomic charges:   -0.0000000

--------------------------------
MULLIKEN REDUCED ORBITAL CHARGES
--------------------------------
  0 C s       :     3.559946  s :     3.559946
      pz      :     0.534071  p :     2.539210
      px      :     1.360312
      py      :     0.644828
      dz2     :     0.001401  d :     0.022454
      dxz     :     0.005056
      dyz     :     0.005327
      dx2y2   :     0.004539
      dxy     :     0.006132
  1 O s       :     3.890258  s :     3.890258
      pz      :     1.985622  p :     5.241287
      px      :     1.269036
      py      :     1.986629
      dz2     :     0.002264  d :     0.011715
      dxz     :     0.001361
      dyz     :     0.000056
      dx2y2   :     0.006708
      dxy     :     0.001327
  2 H s       :     0.699799  s :     0.699799
  3 H s       :     0.699854  s :     0.699854
  4 H s       :     0.625031  s :     0.625031
  5 H s       :     0.710444  s :     0.710444


                     *******************************
                     * LOEWDIN POPULATION ANALYSIS *
                     *******************************

----------------------
LOEWDIN ATOMIC CHARGES
----------------------
   0 C :    0.224735
   1 O :   -1.128213
   2 H :    0.210622
   3 H :    0.210471
   4 H :    0.253498
   5 H :    0.228887

-------------------------------
LOEWDIN REDUCED ORBITAL CHARGES
-------------------------------
  0 C s       :     3.211337  s :     3.211337
      pz      :     0.549706  p :     2.530835
      px      :     1.317265
      py      :     0.663863
      dz2     :     0.002005  d :     0.033094
      dxz     :     0.007868
      dyz     :     0.006899
      dx2y2   :     0.006787
      dxy     :     0.009535
  1 O s       :     3.746907  s :     3.746907
      pz      :     1.986871  p :     5.365299
      px      :     1.390590
      py      :     1.987838
      dz2     :     0.003235  d :     0.016007
      dxz     :     0.001569
      dyz     :     0.000057
      dx2y2   :     0.009632
      dxy     :     0.001514
  2 H s       :     0.789378  s :     0.789378
  3 H s       :     0.789529  s :     0.789529
  4 H s       :     0.746502  s :     0.746502
  5 H s       :     0.771113  s :     0.771113


                      *****************************
                      * MAYER POPULATION ANALYSIS *
                      *****************************

  NA   - Mulliken gross atomic population
  ZA   - Total nuclear charge
  QA   - Mulliken gross atomic charge
  VA   - Mayer's total valence
  BVA  - Mayer's bonded valence
  FA   - Mayer's free valence

  ATOM       NA         ZA         QA         VA         BVA        FA
  0 C      6.1216     6.0000    -0.1216     2.3956     2.3956    -0.0000
  1 O      9.1433     8.0000    -1.1433     1.0815     1.0815    -0.0000
  2 H      0.6998     1.0000     0.3002     0.8806     0.8806    -0.0000
  3 H      0.6999     1.0000     0.3001     0.8806     0.8806    -0.0000
  4 H      0.6250     1.0000     0.3750     0.9474     0.9474    -0.0000
  5 H      0.7104     1.0000     0.2896     0.8711     0.8711     0.0000

  Mayer bond orders larger than 0.1
B(  0-C ,  2-H ) :   0.8817 B(  0-C ,  3-H ) :   0.8817 B(  0-C ,  4-H ) :   0.6579 
B(  1-O ,  4-H ) :   0.2601 B(  1-O ,  5-H ) :   0.8387 

-------
TIMINGS
-------

Total SCF time: 0 days 0 hours 0 min 8 sec 

Total time                  ....       8.776 sec
Sum of individual times     ....       8.460 sec  ( 96.4%)

Fock matrix formation       ....       8.022 sec  ( 91.4%)
  XC integration            ....       2.367 sec  ( 29.5% of F)
    Basis function eval.    ....       0.800 sec  ( 33.8% of XC)
    Density eval.           ....       0.113 sec  (  4.8% of XC)
    XC-Functional eval.     ....       0.670 sec  ( 28.3% of XC)
    XC-Potential eval.      ....       0.080 sec  (  3.4% of XC)
Diagonalization             ....       0.029 sec  (  0.3%)
Density matrix formation    ....       0.000 sec  (  0.0%)
Population analysis         ....       0.010 sec  (  0.1%)
Initial guess               ....       0.134 sec  (  1.5%)
Orbital Transformation      ....       0.000 sec  (  0.0%)
Orbital Orthonormalization  ....       0.000 sec  (  0.0%)
DIIS solution               ....       0.000 sec  (  0.0%)
Grid generation             ....       0.265 sec  (  3.0%)


-------------------------------------------------------------------------------
                          DFT DISPERSION CORRECTION                            
                                                                               
                              DFTD3 V3.1  Rev 1                                
                              USING zero damping                               
-------------------------------------------------------------------------------
The omegaB97X-D3 functional is recognized. Fit by Chai et al.
Active option DFTDOPT                   ...         3   

molecular C6(AA) [au] = 243.637616 


            DFT-D V3
 parameters
 s6 scaling factor         :     1.0000 
 rs6 scaling factor        :     1.2810 
 s8 scaling factor         :     1.0000 
 rs8 scaling factor        :     1.0940 
 Damping factor alpha6     :    14.0000 
 Damping factor alpha8     :    16.0000 
 ad hoc parameters k1-k3   :    16.0000     1.3333    -4.0000 

 Edisp/kcal,au: -0.280407254251  -0.000446857356 
 E6   /kcal   :  -0.123900786 
 E8   /kcal   :  -0.156506468 
 % E8         :  55.813986822 

-------------------------   ----------------
Dispersion correction           -0.000446857
-------------------------   ----------------


-------------------------   --------------------
FINAL SINGLE POINT ENERGY      -115.357448511343
-------------------------   --------------------


                            ***************************************
                            *     ORCA property calculations      *
                            ***************************************

                                    ---------------------
                                    Active property flags
                                    ---------------------
   (+) Dipole Moment


------------------------------------------------------------------------------
                       ORCA ELECTRIC PROPERTIES CALCULATION
------------------------------------------------------------------------------

Dipole Moment Calculation                       ... on
Quadrupole Moment Calculation                   ... off
Polarizability Calculation                      ... off
GBWName                                         ... Scan_28.gbw
Electron density file                           ... Scan_28.scfp.tmp

-------------
DIPOLE MOMENT
-------------
                                X             Y             Z
Electronic contribution:     -2.23283       0.03003       0.04478
Nuclear contribution   :     -2.62838       0.18686       0.21974
                        -----------------------------------------
Total Dipole Moment    :     -4.86121       0.21689       0.26452
                        -----------------------------------------
Magnitude (a.u.)       :      4.87323
Magnitude (Debye)      :     12.38676


Timings for individual modules:

Sum of individual times         ...        9.107 sec (=   0.152 min)
GTO integral calculation        ...        0.297 sec (=   0.005 min)   3.3 %
SCF iterations                  ...        8.811 sec (=   0.147 min)  96.7 %
                             ****ORCA TERMINATED NORMALLY****
TOTAL RUN TIME: 0 days 0 hours 0 minutes 9 seconds 421 msec
