
                                 *****************
                                 * O   R   C   A *
                                 *****************

           --- An Ab Initio, DFT and Semiempirical electronic structure package ---

                  #######################################################
                  #                        -***-                        #
                  #  Department of molecular theory and spectroscopy    #
                  #              Directorship: Frank Neese              #
                  # Max Planck Institute for Chemical Energy Conversion #
                  #                  D-45470 Muelheim/Ruhr              #
                  #                       Germany                       #
                  #                                                     #
                  #                  All rights reserved                #
                  #                        -***-                        #
                  #######################################################


                         Program Version 4.0.0.2 - RELEASE -


 With contributions from (in alphabetic order):
   Daniel Aravena         : Magnetic Properties
   Michael Atanasov       : Ab Initio Ligand Field Theory
   Ute Becker             : Parallelization
   Martin Brehm           : Molecular dynamics
   Dmytro Bykov           : SCF Hessian
   Vijay G. Chilkuri      : MRCI spin determinant printing
   Dipayan Datta          : RHF DLPNO-CCSD density
   Achintya Kumar Dutta   : EOM-CC, STEOM-CC
   Dmitry Ganyushin       : Spin-Orbit,Spin-Spin,Magnetic field MRCI
   Yang Guo               : DLPNO-NEVPT2, CIM, IAO-localization
   Andreas Hansen         : Spin unrestricted coupled pair/coupled cluster methods
   Lee Huntington         : MR-EOM, pCC
   Robert Izsak           : Overlap fitted RIJCOSX, COSX-SCS-MP3, EOM
   Christian Kollmar      : KDIIS, OOCD, Brueckner-CCSD(T), CCSD density
   Simone Kossmann        : Meta GGA functionals, TD-DFT gradient, OOMP2, MP2 Hessian
   Martin Krupicka        : AUTO-CI
   Dagmar Lenk            : GEPOL surface
   Dimitrios Liakos       : Extrapolation schemes; parallel MDCI
   Dimitrios Manganas     : ROCIS; embedding schemes
   Dimitrios Pantazis     : SARC Basis sets
   Taras Petrenko         : DFT Hessian,TD-DFT gradient, ASA, ECA, R-Raman, ABS, FL, XAS/XES, NRVS
   Peter Pinski           : DLPNO-MP2
   Christoph Reimann      : Effective Core Potentials
   Marius Retegan         : Local ZFS, SOC
   Christoph Riplinger    : Optimizer, TS searches, QM/MM, DLPNO-CCSD(T), (RO)-DLPNO pert. Triples
   Tobias Risthaus        : Range-separated hybrids, TD-DFT gradient, RPA, STAB
   Michael Roemelt        : Restricted open shell CIS
   Masaaki Saitow         : Open-shell DLPNO
   Barbara Sandhoefer     : DKH picture change effects
   Kantharuban Sivalingam : CASSCF convergence, NEVPT2, FIC-MRCI
   Georgi Stoychev        : AutoAux
   Boris Wezisla          : Elementary symmetry handling
   Frank Wennmohs         : Technical directorship


 We gratefully acknowledge several colleagues who have allowed us to
 interface, adapt or use parts of their codes:
   Stefan Grimme, W. Hujo, H. Kruse,             : VdW corrections, initial TS optimization,
                  C. Bannwarth                     DFT functionals, gCP, sTDA/sTD-DF
   Ed Valeev                                     : LibInt (2-el integral package), F12 methods
   Garnet Chan, S. Sharma, J. Yang, R. Olivares  : DMRG
   Ulf Ekstrom                                   : XCFun DFT Library
   Mihaly Kallay                                 : mrcc  (arbitrary order and MRCC methods)
   Jiri Pittner, Ondrej Demel                    : Mk-CCSD
   Frank Weinhold                                : gennbo (NPA and NBO analysis)
   Christopher J. Cramer and Donald G. Truhlar   : smd solvation model


 Your calculation uses the libint2 library for the computation of 2-el integrals
 For citations please refer to: http://libint.valeyev.net

 This ORCA versions uses:
   CBLAS   interface :  Fast vector & matrix operations
   LAPACKE interface :  Fast linear algebra routines
   SCALAPACK package :  Parallel linear algebra routines


Your calculation utilizes the atom-pairwise dispersion correction
with the zero-damping scheme (D30)
Cite in your paper:
S.Grimme, J.Antony, S.Ehrlich and H.Krieg, J.Chem.Phys., 132, (2010), 154104 
   

XCFun DFT library Copyright 2009-2010 Ulf Ekstrom and contributors.
See http://admol.org/xcfun for more information. This is free soft-
ware; see the source code for copying conditions. There is ABSOLUTELY
NO WARRANTY; not even for MERCHANTABILITY or FITNESS FOR A PARTICULAR
PURPOSE. For details see the documentation. Scientific users of this 
library should cite U. Ekstrom, L. Visscher, R. Bast, A. J. Thorvald-
sen and K. Ruud; J.Chem.Theor.Comp. 2010, DOI: 10.1021/ct100117s
XCFun Version 0.99 
Your calculation utilizes the basis: 6-31G(d)
   H-He, Li-Ne : W. J. Hehre, R. Ditchfield and J.A. Pople, J. Chem. Phys. 56, 2257 (1972).
                 Note: He and Ne are unpublished basis sets taken from the Gaussian program.
                 Note: Li and B from J. D. Dill and J. A. Pople, J. Chem. Phys. 62, 2921 (1975).
   Na - Ar     : M. M. Francl, W. J. Pietro, W. J. Hehre, J. S. Binkley, M. S. Gordon, 
                 D. J. DeFrees and J. A. Pople, J. Chem. Phys. 77, 3654 (1982).
   K - Zn      : V. A. Rassolov, J. A. Pople, M. A. Ratner, and T. L. Windus, J. Chem. Phys. 109, 1223 (1998).

================================================================================
                                        WARNINGS
                       Please study these warnings very carefully!
================================================================================

Warning: TCutStore was < 0. Adjusted to Thresh (uncritical)

INFO   : the flag for use of LIBINT has been found!

================================================================================
                                       INPUT FILE
================================================================================
NAME = initial3.inp
|  1> ! WB97X-D3 6-31G(d) VerySlowConv
|  2> ! KDIIS NOSOSCF
|  3> %base "Scan_3"
|  4> 
|  5> %scf
|  6> maxiter 999
|  7> end
|  8> 
|  9> * xyz 0 1
| 10> C         -3.861395460845    2.344944051678    0.036551569349
| 11> O         -2.748948132645    2.247809244683   -0.076443285243
| 12> H         -4.341645588662    3.363988009263   -0.154115248083
| 13> H         -4.335194078152    2.054705879241    1.034910864226
| 14> H         -4.403058359095    1.688400778191   -0.683454343682
| 15> H         -2.196868380600    2.791782036943    0.519550443433
| 16> **                         ****END OF INPUT****
================================================================================

                       ****************************
                       * Single Point Calculation *
                       ****************************

---------------------------------
CARTESIAN COORDINATES (ANGSTROEM)
---------------------------------
  C     -3.861395    2.344944    0.036552
  O     -2.748948    2.247809   -0.076443
  H     -4.341646    3.363988   -0.154115
  H     -4.335194    2.054706    1.034911
  H     -4.403058    1.688401   -0.683454
  H     -2.196868    2.791782    0.519550

----------------------------
CARTESIAN COORDINATES (A.U.)
----------------------------
  NO LB      ZA    FRAG     MASS         X           Y           Z
   0 C     6.0000    0    12.011   -7.296980    4.431302    0.069072
   1 O     8.0000    0    15.999   -5.194759    4.247744   -0.144457
   2 H     1.0000    0     1.008   -8.204521    6.357016   -0.291236
   3 H     1.0000    0     1.008   -8.192330    3.882831    1.955698
   4 H     1.0000    0     1.008   -8.320574    3.190615   -1.291542
   5 H     1.0000    0     1.008   -4.151480    5.275703    0.981808

--------------------------------
INTERNAL COORDINATES (ANGSTROEM)
--------------------------------
 C      0   0   0     0.000000000000     0.00000000     0.00000000
 O      1   0   0     1.122382317178     0.00000000     0.00000000
 H      1   2   0     1.142560548955   118.48931066     0.00000000
 H      1   2   3     1.142560549017   118.48931066   236.56737330
 H      1   2   3     1.114834642492   111.44336674   118.28368665
 H      2   1   3     0.977704953428   116.75334834    61.71631329

---------------------------
INTERNAL COORDINATES (A.U.)
---------------------------
 C      0   0   0     0.000000000000     0.00000000     0.00000000
 O      1   0   0     2.120995197022     0.00000000     0.00000000
 H      1   2   0     2.159126528948   118.48931066     0.00000000
 H      1   2   3     2.159126529064   118.48931066   236.56737330
 H      1   2   3     2.106732158919   111.44336674   118.28368665
 H      2   1   3     1.847594601758   116.75334834    61.71631329

---------------------
BASIS SET INFORMATION
---------------------
There are 3 groups of distinct atoms

 Group   1 Type C   : 10s4p1d contracted to 3s2p1d pattern {631/31/1}
 Group   2 Type O   : 10s4p1d contracted to 3s2p1d pattern {631/31/1}
 Group   3 Type H   : 4s contracted to 2s pattern {31}

Atom   0C    basis set group =>   1
Atom   1O    basis set group =>   2
Atom   2H    basis set group =>   3
Atom   3H    basis set group =>   3
Atom   4H    basis set group =>   3
Atom   5H    basis set group =>   3
------------------------------------------------------------------------------
                           ORCA GTO INTEGRAL CALCULATION
------------------------------------------------------------------------------

                         BASIS SET STATISTICS AND STARTUP INFO

 # of primitive gaussian shells          ...   46
 # of primitive gaussian functions       ...   70
 # of contracted shells                  ...   20
 # of contracted basis functions         ...   36
 Highest angular momentum                ...    2
 Maximum contraction depth               ...    6
 Integral package used                   ... LIBINT
 Integral threshhold            Thresh   ...  1.000e-10
 Primitive cut-off              TCut     ...  1.000e-11


------------------------------ INTEGRAL EVALUATION ----------------------------


 * One electron integrals 
 Pre-screening matrix                    ... done
 Shell pair data                         ... done (   0.000 sec)

-------------------------------------------------------------------------------
                                 ORCA SCF
-------------------------------------------------------------------------------

------------
SCF SETTINGS
------------
Hamiltonian:
 Density Functional     Method          .... DFT(GTOs)
 Exchange Functional    Exchange        .... WB97X-D3
 Correlation Functional Correlation     .... WB97X-D3
 Gradients option       PostSCFGGA      .... off
 Hybrid DFT is turned on
   Fraction HF Exchange ScalHFX         ....  0.195728
   Scaling of DF-GGA-X  ScalDFX         ....  0.000000
   Scaling of DF-GGA-C  ScalDFC         ....  1.000000
   Scaling of DF-LDA-C  ScalLDAC        ....  1.000000
   Perturbative correction              ....  0.000000
 Long-range corrected/Screened/Range-Separated Hybrid DFT is turned on
   Amount of maximum screened exact exchange              ....  0.804272
   Range separation parameter mu (erf(mu*r12)/r12)        ....  0.250000


General Settings:
 Integral files         IntName         .... Scan_3
 Hartree-Fock type      HFTyp           .... RHF
 Total Charge           Charge          ....    0
 Multiplicity           Mult            ....    1
 Number of Electrons    NEL             ....   18
 Basis Dimension        Dim             ....   36
 Nuclear Repulsion      ENuc            ....     45.3307033920 Eh

Convergence Acceleration:
 DIIS                   CNVDIIS         .... on
   Start iteration      DIISMaxIt       ....     0
   Startup error        DIISStart       ....  0.200000
   # of expansion vecs  DIISMaxEq       ....     5
   Bias factor          DIISBfac        ....   1.050
   Max. coefficient     DIISMaxC        ....  10.000
 Newton-Raphson         CNVNR           .... off
 SOSCF                  CNVSOSCF        .... off
 Level Shifting         CNVShift        .... off
 Zerner damping         CNVZerner       .... off
 Static damping         CNVDamp         .... off
 Fernandez-Rico         CNVRico         .... off

SCF Procedure:
 Maximum # iterations   MaxIter         ....   999
 SCF integral mode      SCFMode         .... Direct
   Integral package                     .... LIBINT
 Reset frequeny         DirectResetFreq ....    20
 Integral Threshold     Thresh          ....  1.000e-10 Eh
 Primitive CutOff       TCut            ....  1.000e-11 Eh

Convergence Tolerance:
 Convergence Check Mode ConvCheckMode   .... All-Criteria
 Convergence forced     ConvForced      .... 0
 Energy Change          TolE            ....  1.000e-06 Eh
 Max Density Change     TolMaxP         ....  1.000e-05
 RMS Density Change     TolRMSP         ....  1.000e-06
 DIIS Error             TolErr          ....  1.000e-06


Diagonalization of the overlap matrix:
Smallest eigenvalue                        ... 1.008e-02
Time for diagonalization                   ...    0.001 sec
Threshold for overlap eigenvalues          ... 1.000e-08
Number of eigenvalues below threshold      ... 0
Time for construction of square roots      ...    0.006 sec
Total time needed                          ...    0.006 sec

-------------------
DFT GRID GENERATION
-------------------

General Integration Accuracy     IntAcc      ...  4.340
Radial Grid Type                 RadialGrid  ... Gauss-Chebyshev
Angular Grid (max. acc.)         AngularGrid ... Lebedev-110
Angular grid pruning method      GridPruning ... 3 (G Style)
Weight generation scheme         WeightScheme... Becke
Basis function cutoff            BFCut       ...    1.0000e-10
Integration weight cutoff        WCut        ...    1.0000e-14
Grids for H and He will be reduced by one unit

# of grid points (after initial pruning)     ...   6548 (   0.0 sec)
# of grid points (after weights+screening)   ...   6333 (   0.0 sec)
nearest neighbour list constructed           ...    0.0 sec
Grid point re-assignment to atoms done       ...    0.0 sec
Grid point division into batches done        ...    0.0 sec
Reduced shell lists constructed in    0.0 sec

Total number of grid points                  ...     6333
Total number of batches                      ...      102
Average number of points per batch           ...       62
Average number of grid points per atom       ...     1056
Average number of shells per batch           ...    17.82 (89.08%)
Average number of basis functions per batch  ...    32.40 (89.99%)
Average number of large shells per batch     ...    16.36 (91.83%)
Average number of large basis fcns per batch ...    30.24 (93.35%)
Maximum spatial batch extension              ...  19.49, 25.60, 21.59 au
Average spatial batch extension              ...   4.61,  4.75,  4.55 au

Time for grid setup =    0.049 sec

------------------------------
INITIAL GUESS: MODEL POTENTIAL
------------------------------
Loading Hartree-Fock densities                     ... done
Calculating cut-offs                               ... done
Setting up the integral package                    ... done
Initializing the effective Hamiltonian             ... done
Starting the Coulomb interaction                   ... done (   0.0 sec)
Reading the grid                                   ... done
Mapping shells                                     ... done
Starting the XC term evaluation                    ... done (   0.1 sec)
  promolecular density results
     # of electrons  =     17.993034005
     EX              =    -14.532666706
     EC              =     -0.587355380
     EX+EC           =    -15.120022086
Transforming the Hamiltonian                       ... done (   0.0 sec)
Diagonalizing the Hamiltonian                      ... done (   0.0 sec)
Back transforming the eigenvectors                 ... done (   0.0 sec)
Now organizing SCF variables                       ... done
                      ------------------
                      INITIAL GUESS DONE (   0.2 sec)
                      ------------------
--------------
SCF ITERATIONS
--------------
ITER       Energy         Delta-E        Max-DP      RMS-DP      [F,P]   Gradient Norm
               ***  Starting incremental Fock matrix formation  ***
                             ****Resetting KDIIS****
                             ****Turning on KDIIS(Cayley)****
  0   -115.4685855678   0.000000000000 0.03223962  0.00252521  0.1156226   0.120785574
  1   -115.5089063081  -0.040320740327 0.02439983  0.00208034  0.0921936   0.096440047
  2   -115.5335891800  -0.024682871886 0.03928993  0.00349492  0.0745110   0.078450866
  3   -115.5631525012  -0.029563321229 0.05821565  0.00552955  0.0451342   0.048760698
  4   -115.5818306109  -0.018678109617 0.00494173  0.00059893  0.0033938   0.002983068
  5   -115.5819355793  -0.000104968418 0.00252152  0.00019155  0.0005137   0.000469115
  6   -115.5819325968   0.000002982473 0.00133038  0.00014090  0.0006988   0.000674839
  7   -115.5819380981  -0.000005501307 0.00031023  0.00002471  0.0001062   0.000096766
                          ***Energy convergence achieved***
  8   -115.5819382149  -0.000000116765 0.00003011  0.00000302  0.0000089   0.000010126
                           ***RMSP convergence achieved***
                           ***MAXP convergence achieved***
                    *** KDIIS BlockDiag ( 0.000 sec) ***

               *****************************************************
               *                     SUCCESS                       *
               *           SCF CONVERGED AFTER   9 CYCLES          *
               *****************************************************

Setting up the final grid:

General Integration Accuracy     IntAcc      ...  4.670
Radial Grid Type                 RadialGrid  ... Gauss-Chebyshev
Angular Grid (max. acc.)         AngularGrid ... Lebedev-302
Angular grid pruning method      GridPruning ... 3 (G Style)
Weight generation scheme         WeightScheme... Becke
Basis function cutoff            BFCut       ...    1.0000e-10
Integration weight cutoff        WCut        ...    1.0000e-14
Grids for H and He will be reduced by one unit

# of grid points (after initial pruning)     ...  26000 (   0.0 sec)
# of grid points (after weights+screening)   ...  25132 (   0.0 sec)
nearest neighbour list constructed           ...    0.0 sec
Grid point re-assignment to atoms done       ...    0.0 sec
Grid point division into batches done        ...    0.1 sec
Reduced shell lists constructed in    0.2 sec

Total number of grid points                  ...    25132
Total number of batches                      ...      397
Average number of points per batch           ...       63
Average number of grid points per atom       ...     4189
Average number of shells per batch           ...    16.44 (82.22%)
Average number of basis functions per batch  ...    30.09 (83.58%)
Average number of large shells per batch     ...    14.91 (90.66%)
Average number of large basis fcns per batch ...    27.65 (91.89%)
Maximum spatial batch extension              ...  18.14, 17.32, 16.88 au
Average spatial batch extension              ...   2.98,  3.04,  3.00 au

Final grid set up in    0.2 sec
Final integration                            ... done (   0.2 sec)
Change in XC energy                          ...    -0.000108819
Integrated number of electrons               ...    18.000016035
Previous integrated no of electrons          ...    17.998200647

----------------
TOTAL SCF ENERGY
----------------

Total Energy       :         -115.58204704 Eh           -3145.14740 eV

Components:
Nuclear Repulsion  :           45.33070339 Eh            1233.51115 eV
Electronic Energy  :         -160.91275043 Eh           -4378.65855 eV
One Electron Energy:         -246.28445772 Eh           -6701.74080 eV
Two Electron Energy:           85.37170730 Eh            2323.08226 eV

Virial components:
Potential Energy   :         -231.36037187 Eh           -6295.63578 eV
Kinetic Energy     :          115.77832483 Eh            3150.48839 eV
Virial Ratio       :            1.99830471


DFT components:
N(Alpha)           :        9.000008017645 electrons
N(Beta)            :        9.000008017645 electrons
N(Total)           :       18.000016035291 electrons
E(XC)              :      -10.766577919711 Eh       

---------------
SCF CONVERGENCE
---------------

  Last Energy change         ...   -1.1078e-09  Tolerance :   1.0000e-06
  Last MAX-Density change    ...    9.2271e-06  Tolerance :   1.0000e-05
  Last RMS-Density change    ...    8.8679e-07  Tolerance :   1.0000e-06
  Last DIIS Error            ...    2.4983e-06  Tolerance :   1.0000e-06

             **** THE GBW FILE WAS UPDATED (Scan_3.gbw) ****
             **** DENSITY FILE WAS UPDATED (Scan_3.scfp.tmp) ****
             **** ENERGY FILE WAS UPDATED (Scan_3.en.tmp) ****
----------------
ORBITAL ENERGIES
----------------

  NO   OCC          E(Eh)            E(eV) 
   0   2.0000     -19.257608      -524.0262 
   1   2.0000     -10.308578      -280.5107 
   2   2.0000      -1.260207       -34.2920 
   3   2.0000      -0.796515       -21.6743 
   4   2.0000      -0.662388       -18.0245 
   5   2.0000      -0.584814       -15.9136 
   6   2.0000      -0.581182       -15.8148 
   7   2.0000      -0.382272       -10.4021 
   8   2.0000      -0.336257        -9.1500 
   9   0.0000       0.160322         4.3626 
  10   0.0000       0.226691         6.1686 
  11   0.0000       0.275728         7.5029 
  12   0.0000       0.287598         7.8259 
  13   0.0000       0.370217        10.0741 
  14   0.0000       0.672721        18.3057 
  15   0.0000       0.679973        18.5030 
  16   0.0000       0.823216        22.4008 
  17   0.0000       0.893085        24.3021 
  18   0.0000       0.935193        25.4479 
  19   0.0000       0.985249        26.8100 
  20   0.0000       1.048595        28.5337 
  21   0.0000       1.072955        29.1966 
  22   0.0000       1.074117        29.2282 
  23   0.0000       1.157418        31.4950 
  24   0.0000       1.227543        33.4031 
  25   0.0000       1.625441        44.2305 
  26   0.0000       1.706663        46.4407 
  27   0.0000       1.792733        48.7827 
  28   0.0000       1.809238        49.2319 
  29   0.0000       2.046152        55.6786 
  30   0.0000       2.279167        62.0193 
  31   0.0000       2.551305        69.4245 
  32   0.0000       2.656842        72.2964 
  33   0.0000       2.781635        75.6921 
  34   0.0000       2.784471        75.7693 
  35   0.0000       3.147969        85.6606 

                    ********************************
                    * MULLIKEN POPULATION ANALYSIS *
                    ********************************

-----------------------
MULLIKEN ATOMIC CHARGES
-----------------------
   0 C :   -0.265141
   1 O :   -0.433186
   2 H :    0.068090
   3 H :    0.068262
   4 H :    0.134607
   5 H :    0.427368
Sum of atomic charges:   -0.0000000

--------------------------------
MULLIKEN REDUCED ORBITAL CHARGES
--------------------------------
  0 C s       :     3.201266  s :     3.201266
      pz      :     1.067805  p :     2.955881
      px      :     0.825834
      py      :     1.062241
      dz2     :     0.012964  d :     0.107994
      dxz     :     0.033630
      dyz     :     0.005269
      dx2y2   :     0.021630
      dxy     :     0.034501
  1 O s       :     3.707770  s :     3.707770
      pz      :     1.692152  p :     4.688127
      px      :     1.277411
      py      :     1.718565
      dz2     :     0.002608  d :     0.037288
      dxz     :     0.012381
      dyz     :     0.006566
      dx2y2   :     0.004200
      dxy     :     0.011533
  2 H s       :     0.931910  s :     0.931910
  3 H s       :     0.931738  s :     0.931738
  4 H s       :     0.865393  s :     0.865393
  5 H s       :     0.572632  s :     0.572632


                     *******************************
                     * LOEWDIN POPULATION ANALYSIS *
                     *******************************

----------------------
LOEWDIN ATOMIC CHARGES
----------------------
   0 C :   -0.308928
   1 O :   -0.230815
   2 H :    0.049567
   3 H :    0.049439
   4 H :    0.103843
   5 H :    0.336894

-------------------------------
LOEWDIN REDUCED ORBITAL CHARGES
-------------------------------
  0 C s       :     2.892192  s :     2.892192
      pz      :     1.089264  p :     3.158242
      px      :     0.982353
      py      :     1.086625
      dz2     :     0.027410  d :     0.258494
      dxz     :     0.086216
      dyz     :     0.007984
      dx2y2   :     0.048619
      dxy     :     0.088265
  1 O s       :     3.367732  s :     3.367732
      pz      :     1.667878  p :     4.761796
      px      :     1.401760
      py      :     1.692158
      dz2     :     0.007739  d :     0.101287
      dxz     :     0.034634
      dyz     :     0.007410
      dx2y2   :     0.018792
      dxy     :     0.032712
  2 H s       :     0.950433  s :     0.950433
  3 H s       :     0.950561  s :     0.950561
  4 H s       :     0.896157  s :     0.896157
  5 H s       :     0.663106  s :     0.663106


                      *****************************
                      * MAYER POPULATION ANALYSIS *
                      *****************************

  NA   - Mulliken gross atomic population
  ZA   - Total nuclear charge
  QA   - Mulliken gross atomic charge
  VA   - Mayer's total valence
  BVA  - Mayer's bonded valence
  FA   - Mayer's free valence

  ATOM       NA         ZA         QA         VA         BVA        FA
  0 C      6.2651     6.0000    -0.2651     3.9327     3.9327    -0.0000
  1 O      8.4332     8.0000    -0.4332     1.9745     1.9745    -0.0000
  2 H      0.9319     1.0000     0.0681     0.9335     0.9335    -0.0000
  3 H      0.9317     1.0000     0.0683     0.9334     0.9334    -0.0000
  4 H      0.8654     1.0000     0.1346     0.9320     0.9320    -0.0000
  5 H      0.5726     1.0000     0.4274     0.7801     0.7801     0.0000

  Mayer bond orders larger than 0.1
B(  0-C ,  1-O ) :   1.1521 B(  0-C ,  2-H ) :   0.9289 B(  0-C ,  3-H ) :   0.9288 
B(  0-C ,  4-H ) :   0.9301 B(  1-O ,  5-H ) :   0.7626 

-------
TIMINGS
-------

Total SCF time: 0 days 0 hours 0 min 4 sec 

Total time                  ....       4.700 sec
Sum of individual times     ....       4.533 sec  ( 96.5%)

Fock matrix formation       ....       4.053 sec  ( 86.2%)
  XC integration            ....       1.052 sec  ( 26.0% of F)
    Basis function eval.    ....       0.403 sec  ( 38.3% of XC)
    Density eval.           ....       0.051 sec  (  4.9% of XC)
    XC-Functional eval.     ....       0.268 sec  ( 25.5% of XC)
    XC-Potential eval.      ....       0.055 sec  (  5.2% of XC)
Diagonalization             ....       0.018 sec  (  0.4%)
Density matrix formation    ....       0.000 sec  (  0.0%)
Population analysis         ....       0.011 sec  (  0.2%)
Initial guess               ....       0.167 sec  (  3.5%)
Orbital Transformation      ....       0.000 sec  (  0.0%)
Orbital Orthonormalization  ....       0.000 sec  (  0.0%)
DIIS solution               ....       0.000 sec  (  0.0%)
Grid generation             ....       0.284 sec  (  6.0%)


-------------------------------------------------------------------------------
                          DFT DISPERSION CORRECTION                            
                                                                               
                              DFTD3 V3.1  Rev 1                                
                              USING zero damping                               
-------------------------------------------------------------------------------
The omegaB97X-D3 functional is recognized. Fit by Chai et al.
Active option DFTDOPT                   ...         3   

molecular C6(AA) [au] = 208.678218 


            DFT-D V3
 parameters
 s6 scaling factor         :     1.0000 
 rs6 scaling factor        :     1.2810 
 s8 scaling factor         :     1.0000 
 rs8 scaling factor        :     1.0940 
 Damping factor alpha6     :    14.0000 
 Damping factor alpha8     :    16.0000 
 ad hoc parameters k1-k3   :    16.0000     1.3333    -4.0000 

 Edisp/kcal,au: -0.118514167980  -0.000188864328 
 E6   /kcal   :  -0.023270119 
 E8   /kcal   :  -0.095244049 
 % E8         :  80.365116208 

-------------------------   ----------------
Dispersion correction           -0.000188864
-------------------------   ----------------


-------------------------   --------------------
FINAL SINGLE POINT ENERGY      -115.582235899496
-------------------------   --------------------


                            ***************************************
                            *     ORCA property calculations      *
                            ***************************************

                                    ---------------------
                                    Active property flags
                                    ---------------------
   (+) Dipole Moment


------------------------------------------------------------------------------
                       ORCA ELECTRIC PROPERTIES CALCULATION
------------------------------------------------------------------------------

Dipole Moment Calculation                       ... on
Quadrupole Moment Calculation                   ... off
Polarizability Calculation                      ... off
GBWName                                         ... Scan_3.gbw
Electron density file                           ... Scan_3.scfp.tmp

-------------
DIPOLE MOMENT
-------------
                                X             Y             Z
Electronic contribution:      2.27873      -0.26413      -0.30408
Nuclear contribution   :     -1.93787       0.60677       0.67866
                        -----------------------------------------
Total Dipole Moment    :      0.34086       0.34265       0.37458
                        -----------------------------------------
Magnitude (a.u.)       :      0.61147
Magnitude (Debye)      :      1.55424


Timings for individual modules:

Sum of individual times         ...        5.168 sec (=   0.086 min)
GTO integral calculation        ...        0.418 sec (=   0.007 min)   8.1 %
SCF iterations                  ...        4.750 sec (=   0.079 min)  91.9 %
                             ****ORCA TERMINATED NORMALLY****
TOTAL RUN TIME: 0 days 0 hours 0 minutes 5 seconds 580 msec
