
                                 *****************
                                 * O   R   C   A *
                                 *****************

           --- An Ab Initio, DFT and Semiempirical electronic structure package ---

                  #######################################################
                  #                        -***-                        #
                  #  Department of molecular theory and spectroscopy    #
                  #              Directorship: Frank Neese              #
                  # Max Planck Institute for Chemical Energy Conversion #
                  #                  D-45470 Muelheim/Ruhr              #
                  #                       Germany                       #
                  #                                                     #
                  #                  All rights reserved                #
                  #                        -***-                        #
                  #######################################################


                         Program Version 4.0.0.2 - RELEASE -


 With contributions from (in alphabetic order):
   Daniel Aravena         : Magnetic Properties
   Michael Atanasov       : Ab Initio Ligand Field Theory
   Ute Becker             : Parallelization
   Martin Brehm           : Molecular dynamics
   Dmytro Bykov           : SCF Hessian
   Vijay G. Chilkuri      : MRCI spin determinant printing
   Dipayan Datta          : RHF DLPNO-CCSD density
   Achintya Kumar Dutta   : EOM-CC, STEOM-CC
   Dmitry Ganyushin       : Spin-Orbit,Spin-Spin,Magnetic field MRCI
   Yang Guo               : DLPNO-NEVPT2, CIM, IAO-localization
   Andreas Hansen         : Spin unrestricted coupled pair/coupled cluster methods
   Lee Huntington         : MR-EOM, pCC
   Robert Izsak           : Overlap fitted RIJCOSX, COSX-SCS-MP3, EOM
   Christian Kollmar      : KDIIS, OOCD, Brueckner-CCSD(T), CCSD density
   Simone Kossmann        : Meta GGA functionals, TD-DFT gradient, OOMP2, MP2 Hessian
   Martin Krupicka        : AUTO-CI
   Dagmar Lenk            : GEPOL surface
   Dimitrios Liakos       : Extrapolation schemes; parallel MDCI
   Dimitrios Manganas     : ROCIS; embedding schemes
   Dimitrios Pantazis     : SARC Basis sets
   Taras Petrenko         : DFT Hessian,TD-DFT gradient, ASA, ECA, R-Raman, ABS, FL, XAS/XES, NRVS
   Peter Pinski           : DLPNO-MP2
   Christoph Reimann      : Effective Core Potentials
   Marius Retegan         : Local ZFS, SOC
   Christoph Riplinger    : Optimizer, TS searches, QM/MM, DLPNO-CCSD(T), (RO)-DLPNO pert. Triples
   Tobias Risthaus        : Range-separated hybrids, TD-DFT gradient, RPA, STAB
   Michael Roemelt        : Restricted open shell CIS
   Masaaki Saitow         : Open-shell DLPNO
   Barbara Sandhoefer     : DKH picture change effects
   Kantharuban Sivalingam : CASSCF convergence, NEVPT2, FIC-MRCI
   Georgi Stoychev        : AutoAux
   Boris Wezisla          : Elementary symmetry handling
   Frank Wennmohs         : Technical directorship


 We gratefully acknowledge several colleagues who have allowed us to
 interface, adapt or use parts of their codes:
   Stefan Grimme, W. Hujo, H. Kruse,             : VdW corrections, initial TS optimization,
                  C. Bannwarth                     DFT functionals, gCP, sTDA/sTD-DF
   Ed Valeev                                     : LibInt (2-el integral package), F12 methods
   Garnet Chan, S. Sharma, J. Yang, R. Olivares  : DMRG
   Ulf Ekstrom                                   : XCFun DFT Library
   Mihaly Kallay                                 : mrcc  (arbitrary order and MRCC methods)
   Jiri Pittner, Ondrej Demel                    : Mk-CCSD
   Frank Weinhold                                : gennbo (NPA and NBO analysis)
   Christopher J. Cramer and Donald G. Truhlar   : smd solvation model


 Your calculation uses the libint2 library for the computation of 2-el integrals
 For citations please refer to: http://libint.valeyev.net

 This ORCA versions uses:
   CBLAS   interface :  Fast vector & matrix operations
   LAPACKE interface :  Fast linear algebra routines
   SCALAPACK package :  Parallel linear algebra routines


Your calculation utilizes the atom-pairwise dispersion correction
with the zero-damping scheme (D30)
Cite in your paper:
S.Grimme, J.Antony, S.Ehrlich and H.Krieg, J.Chem.Phys., 132, (2010), 154104 
   

XCFun DFT library Copyright 2009-2010 Ulf Ekstrom and contributors.
See http://admol.org/xcfun for more information. This is free soft-
ware; see the source code for copying conditions. There is ABSOLUTELY
NO WARRANTY; not even for MERCHANTABILITY or FITNESS FOR A PARTICULAR
PURPOSE. For details see the documentation. Scientific users of this 
library should cite U. Ekstrom, L. Visscher, R. Bast, A. J. Thorvald-
sen and K. Ruud; J.Chem.Theor.Comp. 2010, DOI: 10.1021/ct100117s
XCFun Version 0.99 
Your calculation utilizes the basis: 6-31G(d)
   H-He, Li-Ne : W. J. Hehre, R. Ditchfield and J.A. Pople, J. Chem. Phys. 56, 2257 (1972).
                 Note: He and Ne are unpublished basis sets taken from the Gaussian program.
                 Note: Li and B from J. D. Dill and J. A. Pople, J. Chem. Phys. 62, 2921 (1975).
   Na - Ar     : M. M. Francl, W. J. Pietro, W. J. Hehre, J. S. Binkley, M. S. Gordon, 
                 D. J. DeFrees and J. A. Pople, J. Chem. Phys. 77, 3654 (1982).
   K - Zn      : V. A. Rassolov, J. A. Pople, M. A. Ratner, and T. L. Windus, J. Chem. Phys. 109, 1223 (1998).

================================================================================
                                        WARNINGS
                       Please study these warnings very carefully!
================================================================================

Warning: TCutStore was < 0. Adjusted to Thresh (uncritical)

INFO   : the flag for use of LIBINT has been found!

================================================================================
                                       INPUT FILE
================================================================================
NAME = initial30.inp
|  1> ! WB97X-D3 6-31G(d) VerySlowConv
|  2> ! KDIIS NOSOSCF
|  3> %base "Scan_30"
|  4> 
|  5> %scf
|  6> maxiter 999
|  7> end
|  8> 
|  9> * xyz 0 1
| 10> C         -4.961228884267    2.434408873705    0.141040442265
| 11> O         -1.500194534021    2.364805738455    0.045631566333
| 12> H         -5.500697926180    3.137414856199   -0.460249936357
| 13> H         -5.493973507701    1.765528415304    0.785692573215
| 14> H         -3.887021970786    2.398817703601    0.096052618889
| 15> H         -0.543993177045    2.390654412735    0.068832735655
| 16> **                         ****END OF INPUT****
================================================================================

                       ****************************
                       * Single Point Calculation *
                       ****************************

---------------------------------
CARTESIAN COORDINATES (ANGSTROEM)
---------------------------------
  C     -4.961229    2.434409    0.141040
  O     -1.500195    2.364806    0.045632
  H     -5.500698    3.137415   -0.460250
  H     -5.493974    1.765528    0.785693
  H     -3.887022    2.398818    0.096053
  H     -0.543993    2.390654    0.068833

----------------------------
CARTESIAN COORDINATES (A.U.)
----------------------------
  NO LB      ZA    FRAG     MASS         X           Y           Z
   0 C     6.0000    0    12.011   -9.375364    4.600366    0.266528
   1 O     8.0000    0    15.999   -2.834957    4.468835    0.086231
   2 H     1.0000    0     1.008  -10.394813    5.928855   -0.869746
   3 H     1.0000    0     1.008  -10.382105    3.336365    1.484744
   4 H     1.0000    0     1.008   -7.345407    4.533109    0.181513
   5 H     1.0000    0     1.008   -1.027998    4.517682    0.130075

--------------------------------
INTERNAL COORDINATES (ANGSTROEM)
--------------------------------
 C      0   0   0     0.000000000000     0.00000000     0.00000000
 O      1   0   0     3.463048689179     0.00000000     0.00000000
 H      1   2   0     1.070884857503   120.07889529     0.00000000
 H      1   2   3     1.070884807702   120.08091317   181.15342110
 H      1   2   3     1.075737481271     1.10656547    90.62625130
 H      2   1   3     0.956832003699   175.98733722    89.38030803

---------------------------
INTERNAL COORDINATES (A.U.)
---------------------------
 C      0   0   0     0.000000000000     0.00000000     0.00000000
 O      1   0   0     6.544213610984     0.00000000     0.00000000
 H      1   2   0     2.023679101643   120.07889529     0.00000000
 H      1   2   3     2.023679007534   120.08091317   181.15342110
 H      1   2   3     2.032849231597     1.10656547    90.62625130
 H      2   1   3     1.808150443162   175.98733722    89.38030803

---------------------
BASIS SET INFORMATION
---------------------
There are 3 groups of distinct atoms

 Group   1 Type C   : 10s4p1d contracted to 3s2p1d pattern {631/31/1}
 Group   2 Type O   : 10s4p1d contracted to 3s2p1d pattern {631/31/1}
 Group   3 Type H   : 4s contracted to 2s pattern {31}

Atom   0C    basis set group =>   1
Atom   1O    basis set group =>   2
Atom   2H    basis set group =>   3
Atom   3H    basis set group =>   3
Atom   4H    basis set group =>   3
Atom   5H    basis set group =>   3
------------------------------------------------------------------------------
                           ORCA GTO INTEGRAL CALCULATION
------------------------------------------------------------------------------

                         BASIS SET STATISTICS AND STARTUP INFO

 # of primitive gaussian shells          ...   46
 # of primitive gaussian functions       ...   70
 # of contracted shells                  ...   20
 # of contracted basis functions         ...   36
 Highest angular momentum                ...    2
 Maximum contraction depth               ...    6
 Integral package used                   ... LIBINT
 Integral threshhold            Thresh   ...  1.000e-10
 Primitive cut-off              TCut     ...  1.000e-11


------------------------------ INTEGRAL EVALUATION ----------------------------


 * One electron integrals 
 Pre-screening matrix                    ... done
 Shell pair data                         ... done (   0.000 sec)

-------------------------------------------------------------------------------
                                 ORCA SCF
-------------------------------------------------------------------------------

------------
SCF SETTINGS
------------
Hamiltonian:
 Density Functional     Method          .... DFT(GTOs)
 Exchange Functional    Exchange        .... WB97X-D3
 Correlation Functional Correlation     .... WB97X-D3
 Gradients option       PostSCFGGA      .... off
 Hybrid DFT is turned on
   Fraction HF Exchange ScalHFX         ....  0.195728
   Scaling of DF-GGA-X  ScalDFX         ....  0.000000
   Scaling of DF-GGA-C  ScalDFC         ....  1.000000
   Scaling of DF-LDA-C  ScalLDAC        ....  1.000000
   Perturbative correction              ....  0.000000
 Long-range corrected/Screened/Range-Separated Hybrid DFT is turned on
   Amount of maximum screened exact exchange              ....  0.804272
   Range separation parameter mu (erf(mu*r12)/r12)        ....  0.250000


General Settings:
 Integral files         IntName         .... Scan_30
 Hartree-Fock type      HFTyp           .... RHF
 Total Charge           Charge          ....    0
 Multiplicity           Mult            ....    1
 Number of Electrons    NEL             ....   18
 Basis Dimension        Dim             ....   36
 Nuclear Repulsion      ENuc            ....     26.4172546077 Eh

Convergence Acceleration:
 DIIS                   CNVDIIS         .... on
   Start iteration      DIISMaxIt       ....     0
   Startup error        DIISStart       ....  0.200000
   # of expansion vecs  DIISMaxEq       ....     5
   Bias factor          DIISBfac        ....   1.050
   Max. coefficient     DIISMaxC        ....  10.000
 Newton-Raphson         CNVNR           .... off
 SOSCF                  CNVSOSCF        .... off
 Level Shifting         CNVShift        .... off
 Zerner damping         CNVZerner       .... off
 Static damping         CNVDamp         .... off
 Fernandez-Rico         CNVRico         .... off

SCF Procedure:
 Maximum # iterations   MaxIter         ....   999
 SCF integral mode      SCFMode         .... Direct
   Integral package                     .... LIBINT
 Reset frequeny         DirectResetFreq ....    20
 Integral Threshold     Thresh          ....  1.000e-10 Eh
 Primitive CutOff       TCut            ....  1.000e-11 Eh

Convergence Tolerance:
 Convergence Check Mode ConvCheckMode   .... All-Criteria
 Convergence forced     ConvForced      .... 0
 Energy Change          TolE            ....  1.000e-06 Eh
 Max Density Change     TolMaxP         ....  1.000e-05
 RMS Density Change     TolRMSP         ....  1.000e-06
 DIIS Error             TolErr          ....  1.000e-06


Diagonalization of the overlap matrix:
Smallest eigenvalue                        ... 2.625e-02
Time for diagonalization                   ...    0.001 sec
Threshold for overlap eigenvalues          ... 1.000e-08
Number of eigenvalues below threshold      ... 0
Time for construction of square roots      ...    0.006 sec
Total time needed                          ...    0.006 sec

-------------------
DFT GRID GENERATION
-------------------

General Integration Accuracy     IntAcc      ...  4.340
Radial Grid Type                 RadialGrid  ... Gauss-Chebyshev
Angular Grid (max. acc.)         AngularGrid ... Lebedev-110
Angular grid pruning method      GridPruning ... 3 (G Style)
Weight generation scheme         WeightScheme... Becke
Basis function cutoff            BFCut       ...    1.0000e-10
Integration weight cutoff        WCut        ...    1.0000e-14
Grids for H and He will be reduced by one unit

# of grid points (after initial pruning)     ...   6548 (   0.0 sec)
# of grid points (after weights+screening)   ...   6386 (   0.0 sec)
nearest neighbour list constructed           ...    0.0 sec
Grid point re-assignment to atoms done       ...    0.0 sec
Grid point division into batches done        ...    0.0 sec
Reduced shell lists constructed in    0.0 sec

Total number of grid points                  ...     6386
Total number of batches                      ...      103
Average number of points per batch           ...       62
Average number of grid points per atom       ...     1064
Average number of shells per batch           ...    14.98 (74.90%)
Average number of basis functions per batch  ...    26.67 (74.09%)
Average number of large shells per batch     ...    12.51 (83.50%)
Average number of large basis fcns per batch ...    22.32 (83.67%)
Maximum spatial batch extension              ...  19.05, 20.95, 25.60 au
Average spatial batch extension              ...   4.15,  5.72,  5.74 au

Time for grid setup =    0.048 sec

------------------------------
INITIAL GUESS: MODEL POTENTIAL
------------------------------
Loading Hartree-Fock densities                     ... done
Calculating cut-offs                               ... done
Setting up the integral package                    ... done
Initializing the effective Hamiltonian             ... done
Starting the Coulomb interaction                   ... done (   0.0 sec)
Reading the grid                                   ... done
Mapping shells                                     ... done
Starting the XC term evaluation                    ... done (   0.0 sec)
  promolecular density results
     # of electrons  =     18.002975834
     EX              =    -14.309310825
     EC              =     -0.541290307
     EX+EC           =    -14.850601132
Transforming the Hamiltonian                       ... done (   0.0 sec)
Diagonalizing the Hamiltonian                      ... done (   0.0 sec)
Back transforming the eigenvectors                 ... done (   0.0 sec)
Now organizing SCF variables                       ... done
                      ------------------
                      INITIAL GUESS DONE (   0.2 sec)
                      ------------------
--------------
SCF ITERATIONS
--------------
ITER       Energy         Delta-E        Max-DP      RMS-DP      [F,P]   Gradient Norm
               ***  Starting incremental Fock matrix formation  ***
                             ****Resetting KDIIS****
                             ****Turning on KDIIS(Cayley)****
  0   -115.1215446428   0.000000000000 0.05876441  0.00425132  0.2607552   0.175043759
  1   -115.2077570190  -0.086212376176 0.04557897  0.00386378  0.2041345   0.135485593
  2   -115.2577274597  -0.049970440662 0.06498225  0.00636713  0.1570922   0.106825843
  3   -115.3132073654  -0.055479905764 0.09160845  0.01036349  0.0852232   0.063050766
  4   -115.3358665368  -0.022659171345 0.03574412  0.00344815  0.0265685   0.016868490
  5   -115.3375092353  -0.001642698466 0.04042332  0.00444701  0.0189599   0.011398380
  6   -115.3405530267  -0.003043791455 0.00639347  0.00078692  0.0026721   0.002440256
  7   -115.3406270744  -0.000074047732 0.00608460  0.00077191  0.0015156   0.001209217
  8   -115.3406609884  -0.000033913960 0.00091164  0.00012043  0.0008234   0.000470143
  9   -115.3406725904  -0.000011602032 0.00343086  0.00034272  0.0009554   0.000550749
 10   -115.3406380295   0.000034560893 0.00181121  0.00020975  0.0006337   0.000586401
 11   -115.3406352139   0.000002815614 0.00090476  0.00010933  0.0003887   0.000345542
 12   -115.3406392422  -0.000004028253 0.00097156  0.00006797  0.0006024   0.000296431
                          ***Energy convergence achieved***
 13   -115.3406385353   0.000000706862 0.00036831  0.00005137  0.0005089   0.000293914
 14   -115.3406361119   0.000002423463 0.00129231  0.00015608  0.0003056   0.000277168
                          ***Energy convergence achieved***
 15   -115.3406354442   0.000000667683 0.00103302  0.00012530  0.0002964   0.000217580
 16   -115.3406374586  -0.000002014409 0.00032115  0.00003028  0.0001672   0.000135383
                          ***Energy convergence achieved***
 17   -115.3406378613  -0.000000402672 0.00018483  0.00002124  0.0001501   0.000133624
 18   -115.3406383124  -0.000000451181 0.00052727  0.00005514  0.0001964   0.000136507
 19   -115.3406383733  -0.000000060856 0.00031120  0.00003213  0.0002441   0.000137730
               *** Restarting incremental Fock matrix formation ***
                             ****Resetting KDIIS****

            ***Energy convergence in two consecutive cycles with***
                    ***'reasonable' density convergence***
                       *** signaling convergence ***

                    *** KDIIS BlockDiag ( 0.000 sec) ***

               *****************************************************
               *                     SUCCESS                       *
               *           SCF CONVERGED AFTER  20 CYCLES          *
               *****************************************************

Setting up the final grid:

General Integration Accuracy     IntAcc      ...  4.670
Radial Grid Type                 RadialGrid  ... Gauss-Chebyshev
Angular Grid (max. acc.)         AngularGrid ... Lebedev-302
Angular grid pruning method      GridPruning ... 3 (G Style)
Weight generation scheme         WeightScheme... Becke
Basis function cutoff            BFCut       ...    1.0000e-10
Integration weight cutoff        WCut        ...    1.0000e-14
Grids for H and He will be reduced by one unit

# of grid points (after initial pruning)     ...  26000 (   0.0 sec)
# of grid points (after weights+screening)   ...  25414 (   0.0 sec)
nearest neighbour list constructed           ...    0.0 sec
Grid point re-assignment to atoms done       ...    0.0 sec
Grid point division into batches done        ...    0.1 sec
Reduced shell lists constructed in    0.2 sec

Total number of grid points                  ...    25414
Total number of batches                      ...      400
Average number of points per batch           ...       63
Average number of grid points per atom       ...     4236
Average number of shells per batch           ...    13.61 (68.03%)
Average number of basis functions per batch  ...    24.07 (66.86%)
Average number of large shells per batch     ...    11.13 (81.80%)
Average number of large basis fcns per batch ...    19.89 (82.63%)
Maximum spatial batch extension              ...  20.15, 20.64, 20.64 au
Average spatial batch extension              ...   2.82,  3.38,  3.36 au

Final grid set up in    0.2 sec
Final integration                            ... done (   0.2 sec)
Change in XC energy                          ...    -0.000647675
Integrated number of electrons               ...    17.999983778
Previous integrated no of electrons          ...    17.994434894

----------------
TOTAL SCF ENERGY
----------------

Total Energy       :         -115.34128573 Eh           -3138.59595 eV

Components:
Nuclear Repulsion  :           26.41725461 Eh             718.85004 eV
Electronic Energy  :         -141.75854034 Eh           -3857.44599 eV
One Electron Energy:         -210.05225722 Eh           -5715.81251 eV
Two Electron Energy:           68.29371689 Eh            1858.36651 eV

Virial components:
Potential Energy   :         -230.13229740 Eh           -6262.21818 eV
Kinetic Energy     :          114.79101167 Eh            3123.62223 eV
Virial Ratio       :            2.00479370


DFT components:
N(Alpha)           :        8.999991889005 electrons
N(Beta)            :        8.999991889005 electrons
N(Total)           :       17.999983778010 electrons
E(XC)              :      -10.585104231424 Eh       

---------------
SCF CONVERGENCE
---------------

  Last Energy change         ...    3.2031e-07  Tolerance :   1.0000e-06
  Last MAX-Density change    ...    5.5836e-05  Tolerance :   1.0000e-05
  Last RMS-Density change    ...    7.1606e-06  Tolerance :   1.0000e-06
  Last DIIS Error            ...    1.5062e-04  Tolerance :   1.0000e-06

             **** THE GBW FILE WAS UPDATED (Scan_30.gbw) ****
             **** DENSITY FILE WAS UPDATED (Scan_30.scfp.tmp) ****
             **** ENERGY FILE WAS UPDATED (Scan_30.en.tmp) ****
----------------
ORBITAL ENERGIES
----------------

  NO   OCC          E(Eh)            E(eV) 
   0   2.0000     -18.938332      -515.3382 
   1   2.0000     -10.561647      -287.3970 
   2   2.0000      -0.991258       -26.9735 
   3   2.0000      -0.772066       -21.0090 
   4   2.0000      -0.726386       -19.7660 
   5   2.0000      -0.702659       -19.1203 
   6   2.0000      -0.272149        -7.4055 
   7   2.0000      -0.109910        -2.9908 
   8   2.0000      -0.109870        -2.9897 
   9   0.0000      -0.210731        -5.7343 
  10   0.0000       0.093209         2.5363 
  11   0.0000       0.136825         3.7232 
  12   0.0000       0.225504         6.1363 
  13   0.0000       0.387435        10.5426 
  14   0.0000       0.484631        13.1875 
  15   0.0000       0.499366        13.5885 
  16   0.0000       0.509294        13.8586 
  17   0.0000       0.641625        17.4595 
  18   0.0000       0.848007        23.0754 
  19   0.0000       0.877790        23.8859 
  20   0.0000       0.960143        26.1268 
  21   0.0000       1.175930        31.9987 
  22   0.0000       1.243399        33.8346 
  23   0.0000       1.244373        33.8611 
  24   0.0000       1.529569        41.6217 
  25   0.0000       1.531515        41.6747 
  26   0.0000       1.587955        43.2105 
  27   0.0000       1.635150        44.4947 
  28   0.0000       1.942278        52.8521 
  29   0.0000       2.088899        56.8418 
  30   0.0000       2.091819        56.9213 
  31   0.0000       2.128432        57.9176 
  32   0.0000       2.128718        57.9253 
  33   0.0000       2.196294        59.7642 
  34   0.0000       2.196543        59.7710 
  35   0.0000       2.834534        77.1316 

                    ********************************
                    * MULLIKEN POPULATION ANALYSIS *
                    ********************************

-----------------------
MULLIKEN ATOMIC CHARGES
-----------------------
   0 C :   -0.115309
   1 O :   -1.172206
   2 H :    0.308806
   3 H :    0.308761
   4 H :    0.387976
   5 H :    0.281972
Sum of atomic charges:   -0.0000000

--------------------------------
MULLIKEN REDUCED ORBITAL CHARGES
--------------------------------
  0 C s       :     3.556043  s :     3.556043
      pz      :     0.537220  p :     2.536726
      px      :     1.350337
      py      :     0.649168
      dz2     :     0.001461  d :     0.022541
      dxz     :     0.004943
      dyz     :     0.005364
      dx2y2   :     0.004779
      dxy     :     0.005995
  1 O s       :     3.896755  s :     3.896755
      pz      :     1.996440  p :     5.263570
      px      :     1.270855
      py      :     1.996275
      dz2     :     0.002406  d :     0.011881
      dxz     :     0.001131
      dyz     :     0.000004
      dx2y2   :     0.007205
      dxy     :     0.001134
  2 H s       :     0.691194  s :     0.691194
  3 H s       :     0.691239  s :     0.691239
  4 H s       :     0.612024  s :     0.612024
  5 H s       :     0.718028  s :     0.718028


                     *******************************
                     * LOEWDIN POPULATION ANALYSIS *
                     *******************************

----------------------
LOEWDIN ATOMIC CHARGES
----------------------
   0 C :    0.234658
   1 O :   -1.148107
   2 H :    0.215447
   3 H :    0.215329
   4 H :    0.259863
   5 H :    0.222809

-------------------------------
LOEWDIN REDUCED ORBITAL CHARGES
-------------------------------
  0 C s       :     3.206876  s :     3.206876
      pz      :     0.550993  p :     2.525513
      px      :     1.308607
      py      :     0.665913
      dz2     :     0.002049  d :     0.032954
      dxz     :     0.007673
      dyz     :     0.006896
      dx2y2   :     0.007035
      dxy     :     0.009301
  1 O s       :     3.754280  s :     3.754280
      pz      :     1.996721  p :     5.377378
      px      :     1.384071
      py      :     1.996585
      dz2     :     0.003543  d :     0.016450
      dxz     :     0.001142
      dyz     :     0.000004
      dx2y2   :     0.010613
      dxy     :     0.001147
  2 H s       :     0.784553  s :     0.784553
  3 H s       :     0.784671  s :     0.784671
  4 H s       :     0.740137  s :     0.740137
  5 H s       :     0.777191  s :     0.777191


                      *****************************
                      * MAYER POPULATION ANALYSIS *
                      *****************************

  NA   - Mulliken gross atomic population
  ZA   - Total nuclear charge
  QA   - Mulliken gross atomic charge
  VA   - Mayer's total valence
  BVA  - Mayer's bonded valence
  FA   - Mayer's free valence

  ATOM       NA         ZA         QA         VA         BVA        FA
  0 C      6.1153     6.0000    -0.1153     2.4310     2.4310     0.0000
  1 O      9.1722     8.0000    -1.1722     1.0273     1.0273    -0.0000
  2 H      0.6912     1.0000     0.3088     0.8763     0.8763     0.0000
  3 H      0.6912     1.0000     0.3088     0.8763     0.8763     0.0000
  4 H      0.6120     1.0000     0.3880     0.9185     0.9185     0.0000
  5 H      0.7180     1.0000     0.2820     0.8752     0.8752    -0.0000

  Mayer bond orders larger than 0.1
B(  0-C ,  2-H ) :   0.8788 B(  0-C ,  3-H ) :   0.8788 B(  0-C ,  4-H ) :   0.6956 
B(  1-O ,  4-H ) :   0.1973 B(  1-O ,  5-H ) :   0.8465 

-------
TIMINGS
-------

Total SCF time: 0 days 0 hours 0 min 7 sec 

Total time                  ....       7.953 sec
Sum of individual times     ....       7.685 sec  ( 96.6%)

Fock matrix formation       ....       7.193 sec  ( 90.4%)
  XC integration            ....       1.915 sec  ( 26.6% of F)
    Basis function eval.    ....       0.624 sec  ( 32.6% of XC)
    Density eval.           ....       0.094 sec  (  4.9% of XC)
    XC-Functional eval.     ....       0.534 sec  ( 27.9% of XC)
    XC-Potential eval.      ....       0.062 sec  (  3.2% of XC)
Diagonalization             ....       0.036 sec  (  0.5%)
Density matrix formation    ....       0.000 sec  (  0.0%)
Population analysis         ....       0.017 sec  (  0.2%)
Initial guess               ....       0.163 sec  (  2.1%)
Orbital Transformation      ....       0.000 sec  (  0.0%)
Orbital Orthonormalization  ....       0.000 sec  (  0.0%)
DIIS solution               ....       0.000 sec  (  0.0%)
Grid generation             ....       0.275 sec  (  3.5%)


-------------------------------------------------------------------------------
                          DFT DISPERSION CORRECTION                            
                                                                               
                              DFTD3 V3.1  Rev 1                                
                              USING zero damping                               
-------------------------------------------------------------------------------
The omegaB97X-D3 functional is recognized. Fit by Chai et al.
Active option DFTDOPT                   ...         3   

molecular C6(AA) [au] = 243.644993 


            DFT-D V3
 parameters
 s6 scaling factor         :     1.0000 
 rs6 scaling factor        :     1.2810 
 s8 scaling factor         :     1.0000 
 rs8 scaling factor        :     1.0940 
 Damping factor alpha6     :    14.0000 
 Damping factor alpha8     :    16.0000 
 ad hoc parameters k1-k3   :    16.0000     1.3333    -4.0000 

 Edisp/kcal,au: -0.271833962785  -0.000433194948 
 E6   /kcal   :  -0.121748241 
 E8   /kcal   :  -0.150085721 
 % E8         :  55.212277303 

-------------------------   ----------------
Dispersion correction           -0.000433195
-------------------------   ----------------


-------------------------   --------------------
FINAL SINGLE POINT ENERGY      -115.341718922609
-------------------------   --------------------


                            ***************************************
                            *     ORCA property calculations      *
                            ***************************************

                                    ---------------------
                                    Active property flags
                                    ---------------------
   (+) Dipole Moment


------------------------------------------------------------------------------
                       ORCA ELECTRIC PROPERTIES CALCULATION
------------------------------------------------------------------------------

Dipole Moment Calculation                       ... on
Quadrupole Moment Calculation                   ... off
Polarizability Calculation                      ... off
GBWName                                         ... Scan_30.gbw
Electron density file                           ... Scan_30.scfp.tmp

-------------
DIPOLE MOMENT
-------------
                                X             Y             Z
Electronic contribution:     -2.53990       0.03735       0.05458
Nuclear contribution   :     -2.83733       0.09284       0.11755
                        -----------------------------------------
Total Dipole Moment    :     -5.37723       0.13019       0.17213
                        -----------------------------------------
Magnitude (a.u.)       :      5.38156
Magnitude (Debye)      :     13.67884


Timings for individual modules:

Sum of individual times         ...        8.432 sec (=   0.141 min)
GTO integral calculation        ...        0.428 sec (=   0.007 min)   5.1 %
SCF iterations                  ...        8.004 sec (=   0.133 min)  94.9 %
                             ****ORCA TERMINATED NORMALLY****
TOTAL RUN TIME: 0 days 0 hours 0 minutes 8 seconds 860 msec
