
                                 *****************
                                 * O   R   C   A *
                                 *****************

           --- An Ab Initio, DFT and Semiempirical electronic structure package ---

                  #######################################################
                  #                        -***-                        #
                  #  Department of molecular theory and spectroscopy    #
                  #              Directorship: Frank Neese              #
                  # Max Planck Institute for Chemical Energy Conversion #
                  #                  D-45470 Muelheim/Ruhr              #
                  #                       Germany                       #
                  #                                                     #
                  #                  All rights reserved                #
                  #                        -***-                        #
                  #######################################################


                         Program Version 4.0.0.2 - RELEASE -


 With contributions from (in alphabetic order):
   Daniel Aravena         : Magnetic Properties
   Michael Atanasov       : Ab Initio Ligand Field Theory
   Ute Becker             : Parallelization
   Martin Brehm           : Molecular dynamics
   Dmytro Bykov           : SCF Hessian
   Vijay G. Chilkuri      : MRCI spin determinant printing
   Dipayan Datta          : RHF DLPNO-CCSD density
   Achintya Kumar Dutta   : EOM-CC, STEOM-CC
   Dmitry Ganyushin       : Spin-Orbit,Spin-Spin,Magnetic field MRCI
   Yang Guo               : DLPNO-NEVPT2, CIM, IAO-localization
   Andreas Hansen         : Spin unrestricted coupled pair/coupled cluster methods
   Lee Huntington         : MR-EOM, pCC
   Robert Izsak           : Overlap fitted RIJCOSX, COSX-SCS-MP3, EOM
   Christian Kollmar      : KDIIS, OOCD, Brueckner-CCSD(T), CCSD density
   Simone Kossmann        : Meta GGA functionals, TD-DFT gradient, OOMP2, MP2 Hessian
   Martin Krupicka        : AUTO-CI
   Dagmar Lenk            : GEPOL surface
   Dimitrios Liakos       : Extrapolation schemes; parallel MDCI
   Dimitrios Manganas     : ROCIS; embedding schemes
   Dimitrios Pantazis     : SARC Basis sets
   Taras Petrenko         : DFT Hessian,TD-DFT gradient, ASA, ECA, R-Raman, ABS, FL, XAS/XES, NRVS
   Peter Pinski           : DLPNO-MP2
   Christoph Reimann      : Effective Core Potentials
   Marius Retegan         : Local ZFS, SOC
   Christoph Riplinger    : Optimizer, TS searches, QM/MM, DLPNO-CCSD(T), (RO)-DLPNO pert. Triples
   Tobias Risthaus        : Range-separated hybrids, TD-DFT gradient, RPA, STAB
   Michael Roemelt        : Restricted open shell CIS
   Masaaki Saitow         : Open-shell DLPNO
   Barbara Sandhoefer     : DKH picture change effects
   Kantharuban Sivalingam : CASSCF convergence, NEVPT2, FIC-MRCI
   Georgi Stoychev        : AutoAux
   Boris Wezisla          : Elementary symmetry handling
   Frank Wennmohs         : Technical directorship


 We gratefully acknowledge several colleagues who have allowed us to
 interface, adapt or use parts of their codes:
   Stefan Grimme, W. Hujo, H. Kruse,             : VdW corrections, initial TS optimization,
                  C. Bannwarth                     DFT functionals, gCP, sTDA/sTD-DF
   Ed Valeev                                     : LibInt (2-el integral package), F12 methods
   Garnet Chan, S. Sharma, J. Yang, R. Olivares  : DMRG
   Ulf Ekstrom                                   : XCFun DFT Library
   Mihaly Kallay                                 : mrcc  (arbitrary order and MRCC methods)
   Jiri Pittner, Ondrej Demel                    : Mk-CCSD
   Frank Weinhold                                : gennbo (NPA and NBO analysis)
   Christopher J. Cramer and Donald G. Truhlar   : smd solvation model


 Your calculation uses the libint2 library for the computation of 2-el integrals
 For citations please refer to: http://libint.valeyev.net

 This ORCA versions uses:
   CBLAS   interface :  Fast vector & matrix operations
   LAPACKE interface :  Fast linear algebra routines
   SCALAPACK package :  Parallel linear algebra routines


Your calculation utilizes the atom-pairwise dispersion correction
with the zero-damping scheme (D30)
Cite in your paper:
S.Grimme, J.Antony, S.Ehrlich and H.Krieg, J.Chem.Phys., 132, (2010), 154104 
   

XCFun DFT library Copyright 2009-2010 Ulf Ekstrom and contributors.
See http://admol.org/xcfun for more information. This is free soft-
ware; see the source code for copying conditions. There is ABSOLUTELY
NO WARRANTY; not even for MERCHANTABILITY or FITNESS FOR A PARTICULAR
PURPOSE. For details see the documentation. Scientific users of this 
library should cite U. Ekstrom, L. Visscher, R. Bast, A. J. Thorvald-
sen and K. Ruud; J.Chem.Theor.Comp. 2010, DOI: 10.1021/ct100117s
XCFun Version 0.99 
Your calculation utilizes the basis: 6-31G(d)
   H-He, Li-Ne : W. J. Hehre, R. Ditchfield and J.A. Pople, J. Chem. Phys. 56, 2257 (1972).
                 Note: He and Ne are unpublished basis sets taken from the Gaussian program.
                 Note: Li and B from J. D. Dill and J. A. Pople, J. Chem. Phys. 62, 2921 (1975).
   Na - Ar     : M. M. Francl, W. J. Pietro, W. J. Hehre, J. S. Binkley, M. S. Gordon, 
                 D. J. DeFrees and J. A. Pople, J. Chem. Phys. 77, 3654 (1982).
   K - Zn      : V. A. Rassolov, J. A. Pople, M. A. Ratner, and T. L. Windus, J. Chem. Phys. 109, 1223 (1998).

================================================================================
                                        WARNINGS
                       Please study these warnings very carefully!
================================================================================

Warning: TCutStore was < 0. Adjusted to Thresh (uncritical)

INFO   : the flag for use of LIBINT has been found!

================================================================================
                                       INPUT FILE
================================================================================
NAME = initial31.inp
|  1> ! WB97X-D3 6-31G(d) VerySlowConv
|  2> ! KDIIS NOSOSCF
|  3> %base "Scan_31"
|  4> 
|  5> %scf
|  6> maxiter 999
|  7> end
|  8> 
|  9> * xyz 0 1
| 10> C         -4.995732942556    2.434228835203    0.141029075627
| 11> O         -1.432405555788    2.365090686857    0.045576219237
| 12> H         -5.534023997202    3.137552061239   -0.460706219000
| 13> H         -5.527292144499    1.764879778206    0.785949766698
| 14> H         -3.921744001781    2.402005565375    0.099747952216
| 15> H         -0.475911358174    2.387873073120    0.065403205222
| 16> **                         ****END OF INPUT****
================================================================================

                       ****************************
                       * Single Point Calculation *
                       ****************************

---------------------------------
CARTESIAN COORDINATES (ANGSTROEM)
---------------------------------
  C     -4.995733    2.434229    0.141029
  O     -1.432406    2.365091    0.045576
  H     -5.534024    3.137552   -0.460706
  H     -5.527292    1.764880    0.785950
  H     -3.921744    2.402006    0.099748
  H     -0.475911    2.387873    0.065403

----------------------------
CARTESIAN COORDINATES (A.U.)
----------------------------
  NO LB      ZA    FRAG     MASS         X           Y           Z
   0 C     6.0000    0    12.011   -9.440567    4.600026    0.266506
   1 O     8.0000    0    15.999   -2.706854    4.469374    0.086127
   2 H     1.0000    0     1.008  -10.457790    5.929114   -0.870609
   3 H     1.0000    0     1.008  -10.445068    3.335139    1.485230
   4 H     1.0000    0     1.008   -7.411022    4.539133    0.188496
   5 H     1.0000    0     1.008   -0.899342    4.512426    0.123594

--------------------------------
INTERNAL COORDINATES (ANGSTROEM)
--------------------------------
 C      0   0   0     0.000000000000     0.00000000     0.00000000
 O      1   0   0     3.565276061771     0.00000000     0.00000000
 H      1   2   0     1.070750290494   120.00929270     0.00000000
 H      1   2   3     1.070750224396   120.01111567   181.21295005
 H      1   2   3     1.075264951152     0.90093443    90.66174723
 H      2   1   3     0.956970896405   176.32100694    89.34914880

---------------------------
INTERNAL COORDINATES (A.U.)
---------------------------
 C      0   0   0     0.000000000000     0.00000000     0.00000000
 O      1   0   0     6.737395348573     0.00000000     0.00000000
 H      1   2   0     2.023424806851   120.00929270     0.00000000
 H      1   2   3     2.023424681944   120.01111567   181.21295005
 H      1   2   3     2.031956279081     0.90093443    90.66174723
 H      2   1   3     1.808412912339   176.32100694    89.34914880

---------------------
BASIS SET INFORMATION
---------------------
There are 3 groups of distinct atoms

 Group   1 Type C   : 10s4p1d contracted to 3s2p1d pattern {631/31/1}
 Group   2 Type O   : 10s4p1d contracted to 3s2p1d pattern {631/31/1}
 Group   3 Type H   : 4s contracted to 2s pattern {31}

Atom   0C    basis set group =>   1
Atom   1O    basis set group =>   2
Atom   2H    basis set group =>   3
Atom   3H    basis set group =>   3
Atom   4H    basis set group =>   3
Atom   5H    basis set group =>   3
------------------------------------------------------------------------------
                           ORCA GTO INTEGRAL CALCULATION
------------------------------------------------------------------------------

                         BASIS SET STATISTICS AND STARTUP INFO

 # of primitive gaussian shells          ...   46
 # of primitive gaussian functions       ...   70
 # of contracted shells                  ...   20
 # of contracted basis functions         ...   36
 Highest angular momentum                ...    2
 Maximum contraction depth               ...    6
 Integral package used                   ... LIBINT
 Integral threshhold            Thresh   ...  1.000e-10
 Primitive cut-off              TCut     ...  1.000e-11


------------------------------ INTEGRAL EVALUATION ----------------------------


 * One electron integrals 
 Pre-screening matrix                    ... done
 Shell pair data                         ... done (   0.000 sec)

-------------------------------------------------------------------------------
                                 ORCA SCF
-------------------------------------------------------------------------------

------------
SCF SETTINGS
------------
Hamiltonian:
 Density Functional     Method          .... DFT(GTOs)
 Exchange Functional    Exchange        .... WB97X-D3
 Correlation Functional Correlation     .... WB97X-D3
 Gradients option       PostSCFGGA      .... off
 Hybrid DFT is turned on
   Fraction HF Exchange ScalHFX         ....  0.195728
   Scaling of DF-GGA-X  ScalDFX         ....  0.000000
   Scaling of DF-GGA-C  ScalDFC         ....  1.000000
   Scaling of DF-LDA-C  ScalLDAC        ....  1.000000
   Perturbative correction              ....  0.000000
 Long-range corrected/Screened/Range-Separated Hybrid DFT is turned on
   Amount of maximum screened exact exchange              ....  0.804272
   Range separation parameter mu (erf(mu*r12)/r12)        ....  0.250000


General Settings:
 Integral files         IntName         .... Scan_31
 Hartree-Fock type      HFTyp           .... RHF
 Total Charge           Charge          ....    0
 Multiplicity           Mult            ....    1
 Number of Electrons    NEL             ....   18
 Basis Dimension        Dim             ....   36
 Nuclear Repulsion      ENuc            ....     26.0619996689 Eh

Convergence Acceleration:
 DIIS                   CNVDIIS         .... on
   Start iteration      DIISMaxIt       ....     0
   Startup error        DIISStart       ....  0.200000
   # of expansion vecs  DIISMaxEq       ....     5
   Bias factor          DIISBfac        ....   1.050
   Max. coefficient     DIISMaxC        ....  10.000
 Newton-Raphson         CNVNR           .... off
 SOSCF                  CNVSOSCF        .... off
 Level Shifting         CNVShift        .... off
 Zerner damping         CNVZerner       .... off
 Static damping         CNVDamp         .... off
 Fernandez-Rico         CNVRico         .... off

SCF Procedure:
 Maximum # iterations   MaxIter         ....   999
 SCF integral mode      SCFMode         .... Direct
   Integral package                     .... LIBINT
 Reset frequeny         DirectResetFreq ....    20
 Integral Threshold     Thresh          ....  1.000e-10 Eh
 Primitive CutOff       TCut            ....  1.000e-11 Eh

Convergence Tolerance:
 Convergence Check Mode ConvCheckMode   .... All-Criteria
 Convergence forced     ConvForced      .... 0
 Energy Change          TolE            ....  1.000e-06 Eh
 Max Density Change     TolMaxP         ....  1.000e-05
 RMS Density Change     TolRMSP         ....  1.000e-06
 DIIS Error             TolErr          ....  1.000e-06


Diagonalization of the overlap matrix:
Smallest eigenvalue                        ... 2.732e-02
Time for diagonalization                   ...    0.001 sec
Threshold for overlap eigenvalues          ... 1.000e-08
Number of eigenvalues below threshold      ... 0
Time for construction of square roots      ...    0.005 sec
Total time needed                          ...    0.006 sec

-------------------
DFT GRID GENERATION
-------------------

General Integration Accuracy     IntAcc      ...  4.340
Radial Grid Type                 RadialGrid  ... Gauss-Chebyshev
Angular Grid (max. acc.)         AngularGrid ... Lebedev-110
Angular grid pruning method      GridPruning ... 3 (G Style)
Weight generation scheme         WeightScheme... Becke
Basis function cutoff            BFCut       ...    1.0000e-10
Integration weight cutoff        WCut        ...    1.0000e-14
Grids for H and He will be reduced by one unit

# of grid points (after initial pruning)     ...   6548 (   0.0 sec)
# of grid points (after weights+screening)   ...   6387 (   0.0 sec)
nearest neighbour list constructed           ...    0.0 sec
Grid point re-assignment to atoms done       ...    0.0 sec
Grid point division into batches done        ...    0.0 sec
Reduced shell lists constructed in    0.0 sec

Total number of grid points                  ...     6387
Total number of batches                      ...      103
Average number of points per batch           ...       62
Average number of grid points per atom       ...     1064
Average number of shells per batch           ...    14.89 (74.47%)
Average number of basis functions per batch  ...    26.41 (73.37%)
Average number of large shells per batch     ...    12.34 (82.83%)
Average number of large basis fcns per batch ...    21.82 (82.60%)
Maximum spatial batch extension              ...  19.05, 20.95, 25.60 au
Average spatial batch extension              ...   4.28,  5.71,  5.70 au

Time for grid setup =    0.048 sec

------------------------------
INITIAL GUESS: MODEL POTENTIAL
------------------------------
Loading Hartree-Fock densities                     ... done
Calculating cut-offs                               ... done
Setting up the integral package                    ... done
Initializing the effective Hamiltonian             ... done
Starting the Coulomb interaction                   ... done (   0.0 sec)
Reading the grid                                   ... done
Mapping shells                                     ... done
Starting the XC term evaluation                    ... done (   0.0 sec)
  promolecular density results
     # of electrons  =     18.003125606
     EX              =    -14.308877739
     EC              =     -0.540906932
     EX+EC           =    -14.849784670
Transforming the Hamiltonian                       ... done (   0.0 sec)
Diagonalizing the Hamiltonian                      ... done (   0.0 sec)
Back transforming the eigenvectors                 ... done (   0.0 sec)
Now organizing SCF variables                       ... done
                      ------------------
                      INITIAL GUESS DONE (   0.2 sec)
                      ------------------
--------------
SCF ITERATIONS
--------------
ITER       Energy         Delta-E        Max-DP      RMS-DP      [F,P]   Gradient Norm
               ***  Starting incremental Fock matrix formation  ***
                             ****Resetting KDIIS****
                             ****Turning on KDIIS(Cayley)****
  0   -115.1146301392   0.000000000000 0.05766091  0.00417432  0.2612952   0.175282592
  1   -115.2004145015  -0.085784362288 0.04734769  0.00385494  0.2049833   0.135891232
  2   -115.2508101918  -0.050395690343 0.06343759  0.00627729  0.1572507   0.106845525
  3   -115.3050419401  -0.054231748225 0.08909449  0.00958813  0.0874741   0.063952121
  4   -115.3285079761  -0.023466036040 0.02736424  0.00291158  0.0284543   0.015877532
  5   -115.3312240591  -0.002716083022 0.04396966  0.00451795  0.0173569   0.010400619
  6   -115.3336881505  -0.002464091366 0.00574838  0.00049688  0.0032412   0.002509534
  7   -115.3337819290  -0.000093778464 0.00731072  0.00060453  0.0012175   0.000879545
  8   -115.3338165379  -0.000034608916 0.00027934  0.00003367  0.0007010   0.000481560
  9   -115.3338193045  -0.000002766674 0.00160161  0.00018450  0.0007344   0.000472931
 10   -115.3338073061   0.000011998433 0.00247612  0.00027163  0.0005749   0.000600573
 11   -115.3338028005   0.000004505655 0.00073667  0.00007936  0.0003107   0.000252555
 12   -115.3338056146  -0.000002814102 0.00083757  0.00008610  0.0005469   0.000237437
 13   -115.3338035229   0.000002091708 0.00033053  0.00004440  0.0002656   0.000218759
                          ***Energy convergence achieved***
 14   -115.3338040222  -0.000000499371 0.00017610  0.00001767  0.0002720   0.000153979

            ***Energy convergence in two consecutive cycles with***
                    ***'reasonable' density convergence***
                       *** signaling convergence ***

                    *** KDIIS BlockDiag ( 0.000 sec) ***

               *****************************************************
               *                     SUCCESS                       *
               *           SCF CONVERGED AFTER  15 CYCLES          *
               *****************************************************

Setting up the final grid:

General Integration Accuracy     IntAcc      ...  4.670
Radial Grid Type                 RadialGrid  ... Gauss-Chebyshev
Angular Grid (max. acc.)         AngularGrid ... Lebedev-302
Angular grid pruning method      GridPruning ... 3 (G Style)
Weight generation scheme         WeightScheme... Becke
Basis function cutoff            BFCut       ...    1.0000e-10
Integration weight cutoff        WCut        ...    1.0000e-14
Grids for H and He will be reduced by one unit

# of grid points (after initial pruning)     ...  26000 (   0.0 sec)
# of grid points (after weights+screening)   ...  25423 (   0.0 sec)
nearest neighbour list constructed           ...    0.0 sec
Grid point re-assignment to atoms done       ...    0.0 sec
Grid point division into batches done        ...    0.1 sec
Reduced shell lists constructed in    0.2 sec

Total number of grid points                  ...    25423
Total number of batches                      ...      400
Average number of points per batch           ...       63
Average number of grid points per atom       ...     4237
Average number of shells per batch           ...    13.46 (67.28%)
Average number of basis functions per batch  ...    23.75 (65.96%)
Average number of large shells per batch     ...    10.92 (81.17%)
Average number of large basis fcns per batch ...    19.48 (82.02%)
Maximum spatial batch extension              ...  20.15, 20.64, 20.64 au
Average spatial batch extension              ...   2.85,  3.40,  3.33 au

Final grid set up in    0.2 sec
Final integration                            ... done (   0.2 sec)
Change in XC energy                          ...    -0.000583087
Integrated number of electrons               ...    17.999988711
Previous integrated no of electrons          ...    17.992971675

----------------
TOTAL SCF ENERGY
----------------

Total Energy       :         -115.33438712 Eh           -3138.40823 eV

Components:
Nuclear Repulsion  :           26.06199967 Eh             709.18307 eV
Electronic Energy  :         -141.39638679 Eh           -3847.59129 eV
One Electron Energy:         -209.34185163 Eh           -5696.48139 eV
Two Electron Energy:           67.94546484 Eh            1848.89009 eV

Virial components:
Potential Energy   :         -230.12391815 Eh           -6261.99017 eV
Kinetic Energy     :          114.78953102 Eh            3123.58194 eV
Virial Ratio       :            2.00474657


DFT components:
N(Alpha)           :        8.999994355383 electrons
N(Beta)            :        8.999994355383 electrons
N(Total)           :       17.999988710766 electrons
E(XC)              :      -10.585430129991 Eh       

---------------
SCF CONVERGENCE
---------------

  Last Energy change         ...   -1.3362e-08  Tolerance :   1.0000e-06
  Last MAX-Density change    ...    7.7157e-05  Tolerance :   1.0000e-05
  Last RMS-Density change    ...    8.3515e-06  Tolerance :   1.0000e-06
  Last DIIS Error            ...    2.7379e-04  Tolerance :   1.0000e-06

             **** THE GBW FILE WAS UPDATED (Scan_31.gbw) ****
             **** DENSITY FILE WAS UPDATED (Scan_31.scfp.tmp) ****
             **** ENERGY FILE WAS UPDATED (Scan_31.en.tmp) ****
----------------
ORBITAL ENERGIES
----------------

  NO   OCC          E(Eh)            E(eV) 
   0   2.0000     -18.932054      -515.1674 
   1   2.0000     -10.568391      -287.5805 
   2   2.0000      -0.997370       -27.1398 
   3   2.0000      -0.765631       -20.8339 
   4   2.0000      -0.732221       -19.9247 
   5   2.0000      -0.709688       -19.3116 
   6   2.0000      -0.264892        -7.2081 
   7   2.0000      -0.103505        -2.8165 
   8   2.0000      -0.103457        -2.8152 
   9   0.0000      -0.216526        -5.8920 
  10   0.0000       0.088754         2.4151 
  11   0.0000       0.132456         3.6043 
  12   0.0000       0.214909         5.8480 
  13   0.0000       0.389826        10.6077 
  14   0.0000       0.479038        13.0353 
  15   0.0000       0.493821        13.4375 
  16   0.0000       0.503900        13.7118 
  17   0.0000       0.635788        17.3007 
  18   0.0000       0.843249        22.9460 
  19   0.0000       0.870639        23.6913 
  20   0.0000       0.942062        25.6348 
  21   0.0000       1.181189        32.1418 
  22   0.0000       1.249408        33.9981 
  23   0.0000       1.250040        34.0153 
  24   0.0000       1.523362        41.4528 
  25   0.0000       1.525239        41.5039 
  26   0.0000       1.554508        42.3003 
  27   0.0000       1.640642        44.6441 
  28   0.0000       1.932768        52.5933 
  29   0.0000       2.082415        56.6654 
  30   0.0000       2.086544        56.7777 
  31   0.0000       2.134914        58.0940 
  32   0.0000       2.134979        58.0957 
  33   0.0000       2.202656        59.9373 
  34   0.0000       2.202922        59.9446 
  35   0.0000       2.841649        77.3252 

                    ********************************
                    * MULLIKEN POPULATION ANALYSIS *
                    ********************************

-----------------------
MULLIKEN ATOMIC CHARGES
-----------------------
   0 C :   -0.112620
   1 O :   -1.181863
   2 H :    0.312323
   3 H :    0.312281
   4 H :    0.391524
   5 H :    0.278356
Sum of atomic charges:   -0.0000000

--------------------------------
MULLIKEN REDUCED ORBITAL CHARGES
--------------------------------
  0 C s       :     3.554144  s :     3.554144
      pz      :     0.538803  p :     2.535897
      px      :     1.345839
      py      :     0.651256
      dz2     :     0.001496  d :     0.022579
      dxz     :     0.004877
      dyz     :     0.005389
      dx2y2   :     0.004900
      dxy     :     0.005917
  1 O s       :     3.900034  s :     3.900034
      pz      :     1.996875  p :     5.269800
      px      :     1.276159
      py      :     1.996766
      dz2     :     0.002432  d :     0.012029
      dxz     :     0.001152
      dyz     :     0.000004
      dx2y2   :     0.007285
      dxy     :     0.001156
  2 H s       :     0.687677  s :     0.687677
  3 H s       :     0.687719  s :     0.687719
  4 H s       :     0.608476  s :     0.608476
  5 H s       :     0.721644  s :     0.721644


                     *******************************
                     * LOEWDIN POPULATION ANALYSIS *
                     *******************************

----------------------
LOEWDIN ATOMIC CHARGES
----------------------
   0 C :    0.237863
   1 O :   -1.153505
   2 H :    0.217431
   3 H :    0.217317
   4 H :    0.261414
   5 H :    0.219481

-------------------------------
LOEWDIN REDUCED ORBITAL CHARGES
-------------------------------
  0 C s       :     3.205462  s :     3.205462
      pz      :     0.551669  p :     2.523731
      px      :     1.305168
      py      :     0.666894
      dz2     :     0.002095  d :     0.032944
      dxz     :     0.007564
      dyz     :     0.006911
      dx2y2   :     0.007202
      dxy     :     0.009172
  1 O s       :     3.758120  s :     3.758120
      pz      :     1.997086  p :     5.378591
      px      :     1.384514
      py      :     1.996992
      dz2     :     0.003619  d :     0.016794
      dxz     :     0.001161
      dyz     :     0.000004
      dx2y2   :     0.010844
      dxy     :     0.001167
  2 H s       :     0.782569  s :     0.782569
  3 H s       :     0.782683  s :     0.782683
  4 H s       :     0.738586  s :     0.738586
  5 H s       :     0.780519  s :     0.780519


                      *****************************
                      * MAYER POPULATION ANALYSIS *
                      *****************************

  NA   - Mulliken gross atomic population
  ZA   - Total nuclear charge
  QA   - Mulliken gross atomic charge
  VA   - Mayer's total valence
  BVA  - Mayer's bonded valence
  FA   - Mayer's free valence

  ATOM       NA         ZA         QA         VA         BVA        FA
  0 C      6.1126     6.0000    -0.1126     2.4438     2.4438    -0.0000
  1 O      9.1819     8.0000    -1.1819     1.0100     1.0100    -0.0000
  2 H      0.6877     1.0000     0.3123     0.8746     0.8746    -0.0000
  3 H      0.6877     1.0000     0.3123     0.8746     0.8746    -0.0000
  4 H      0.6085     1.0000     0.3915     0.9073     0.9073    -0.0000
  5 H      0.7216     1.0000     0.2784     0.8770     0.8770     0.0000

  Mayer bond orders larger than 0.1
B(  0-C ,  2-H ) :   0.8775 B(  0-C ,  3-H ) :   0.8775 B(  0-C ,  4-H ) :   0.7095 
B(  1-O ,  4-H ) :   0.1748 B(  1-O ,  5-H ) :   0.8510 

-------
TIMINGS
-------

Total SCF time: 0 days 0 hours 0 min 6 sec 

Total time                  ....       6.208 sec
Sum of individual times     ....       5.973 sec  ( 96.2%)

Fock matrix formation       ....       5.506 sec  ( 88.7%)
  XC integration            ....       1.441 sec  ( 26.2% of F)
    Basis function eval.    ....       0.459 sec  ( 31.9% of XC)
    Density eval.           ....       0.069 sec  (  4.8% of XC)
    XC-Functional eval.     ....       0.404 sec  ( 28.1% of XC)
    XC-Potential eval.      ....       0.046 sec  (  3.2% of XC)
Diagonalization             ....       0.025 sec  (  0.4%)
Density matrix formation    ....       0.000 sec  (  0.0%)
Population analysis         ....       0.014 sec  (  0.2%)
Initial guess               ....       0.155 sec  (  2.5%)
Orbital Transformation      ....       0.000 sec  (  0.0%)
Orbital Orthonormalization  ....       0.000 sec  (  0.0%)
DIIS solution               ....       0.000 sec  (  0.0%)
Grid generation             ....       0.274 sec  (  4.4%)


-------------------------------------------------------------------------------
                          DFT DISPERSION CORRECTION                            
                                                                               
                              DFTD3 V3.1  Rev 1                                
                              USING zero damping                               
-------------------------------------------------------------------------------
The omegaB97X-D3 functional is recognized. Fit by Chai et al.
Active option DFTDOPT                   ...         3   

molecular C6(AA) [au] = 243.646735 


            DFT-D V3
 parameters
 s6 scaling factor         :     1.0000 
 rs6 scaling factor        :     1.2810 
 s8 scaling factor         :     1.0000 
 rs8 scaling factor        :     1.0940 
 Damping factor alpha6     :    14.0000 
 Damping factor alpha8     :    16.0000 
 ad hoc parameters k1-k3   :    16.0000     1.3333    -4.0000 

 Edisp/kcal,au: -0.268726589224  -0.000428243033 
 E6   /kcal   :  -0.121293511 
 E8   /kcal   :  -0.147433078 
 % E8         :  54.863599004 

-------------------------   ----------------
Dispersion correction           -0.000428243
-------------------------   ----------------


-------------------------   --------------------
FINAL SINGLE POINT ENERGY      -115.334815365643
-------------------------   --------------------


                            ***************************************
                            *     ORCA property calculations      *
                            ***************************************

                                    ---------------------
                                    Active property flags
                                    ---------------------
   (+) Dipole Moment


------------------------------------------------------------------------------
                       ORCA ELECTRIC PROPERTIES CALCULATION
------------------------------------------------------------------------------

Dipole Moment Calculation                       ... on
Quadrupole Moment Calculation                   ... off
Polarizability Calculation                      ... off
GBWName                                         ... Scan_31.gbw
Electron density file                           ... Scan_31.scfp.tmp

-------------
DIPOLE MOMENT
-------------
                                X             Y             Z
Electronic contribution:     -2.67644       0.03703       0.05496
Nuclear contribution   :     -2.94240       0.09248       0.11772
                        -----------------------------------------
Total Dipole Moment    :     -5.61884       0.12950       0.17269
                        -----------------------------------------
Magnitude (a.u.)       :      5.62298
Magnitude (Debye)      :     14.29249


Timings for individual modules:

Sum of individual times         ...        6.665 sec (=   0.111 min)
GTO integral calculation        ...        0.408 sec (=   0.007 min)   6.1 %
SCF iterations                  ...        6.258 sec (=   0.104 min)  93.9 %
                             ****ORCA TERMINATED NORMALLY****
TOTAL RUN TIME: 0 days 0 hours 0 minutes 7 seconds 81 msec
