
                                 *****************
                                 * O   R   C   A *
                                 *****************

           --- An Ab Initio, DFT and Semiempirical electronic structure package ---

                  #######################################################
                  #                        -***-                        #
                  #  Department of molecular theory and spectroscopy    #
                  #              Directorship: Frank Neese              #
                  # Max Planck Institute for Chemical Energy Conversion #
                  #                  D-45470 Muelheim/Ruhr              #
                  #                       Germany                       #
                  #                                                     #
                  #                  All rights reserved                #
                  #                        -***-                        #
                  #######################################################


                         Program Version 4.0.0.2 - RELEASE -


 With contributions from (in alphabetic order):
   Daniel Aravena         : Magnetic Properties
   Michael Atanasov       : Ab Initio Ligand Field Theory
   Ute Becker             : Parallelization
   Martin Brehm           : Molecular dynamics
   Dmytro Bykov           : SCF Hessian
   Vijay G. Chilkuri      : MRCI spin determinant printing
   Dipayan Datta          : RHF DLPNO-CCSD density
   Achintya Kumar Dutta   : EOM-CC, STEOM-CC
   Dmitry Ganyushin       : Spin-Orbit,Spin-Spin,Magnetic field MRCI
   Yang Guo               : DLPNO-NEVPT2, CIM, IAO-localization
   Andreas Hansen         : Spin unrestricted coupled pair/coupled cluster methods
   Lee Huntington         : MR-EOM, pCC
   Robert Izsak           : Overlap fitted RIJCOSX, COSX-SCS-MP3, EOM
   Christian Kollmar      : KDIIS, OOCD, Brueckner-CCSD(T), CCSD density
   Simone Kossmann        : Meta GGA functionals, TD-DFT gradient, OOMP2, MP2 Hessian
   Martin Krupicka        : AUTO-CI
   Dagmar Lenk            : GEPOL surface
   Dimitrios Liakos       : Extrapolation schemes; parallel MDCI
   Dimitrios Manganas     : ROCIS; embedding schemes
   Dimitrios Pantazis     : SARC Basis sets
   Taras Petrenko         : DFT Hessian,TD-DFT gradient, ASA, ECA, R-Raman, ABS, FL, XAS/XES, NRVS
   Peter Pinski           : DLPNO-MP2
   Christoph Reimann      : Effective Core Potentials
   Marius Retegan         : Local ZFS, SOC
   Christoph Riplinger    : Optimizer, TS searches, QM/MM, DLPNO-CCSD(T), (RO)-DLPNO pert. Triples
   Tobias Risthaus        : Range-separated hybrids, TD-DFT gradient, RPA, STAB
   Michael Roemelt        : Restricted open shell CIS
   Masaaki Saitow         : Open-shell DLPNO
   Barbara Sandhoefer     : DKH picture change effects
   Kantharuban Sivalingam : CASSCF convergence, NEVPT2, FIC-MRCI
   Georgi Stoychev        : AutoAux
   Boris Wezisla          : Elementary symmetry handling
   Frank Wennmohs         : Technical directorship


 We gratefully acknowledge several colleagues who have allowed us to
 interface, adapt or use parts of their codes:
   Stefan Grimme, W. Hujo, H. Kruse,             : VdW corrections, initial TS optimization,
                  C. Bannwarth                     DFT functionals, gCP, sTDA/sTD-DF
   Ed Valeev                                     : LibInt (2-el integral package), F12 methods
   Garnet Chan, S. Sharma, J. Yang, R. Olivares  : DMRG
   Ulf Ekstrom                                   : XCFun DFT Library
   Mihaly Kallay                                 : mrcc  (arbitrary order and MRCC methods)
   Jiri Pittner, Ondrej Demel                    : Mk-CCSD
   Frank Weinhold                                : gennbo (NPA and NBO analysis)
   Christopher J. Cramer and Donald G. Truhlar   : smd solvation model


 Your calculation uses the libint2 library for the computation of 2-el integrals
 For citations please refer to: http://libint.valeyev.net

 This ORCA versions uses:
   CBLAS   interface :  Fast vector & matrix operations
   LAPACKE interface :  Fast linear algebra routines
   SCALAPACK package :  Parallel linear algebra routines


Your calculation utilizes the atom-pairwise dispersion correction
with the zero-damping scheme (D30)
Cite in your paper:
S.Grimme, J.Antony, S.Ehrlich and H.Krieg, J.Chem.Phys., 132, (2010), 154104 
   

XCFun DFT library Copyright 2009-2010 Ulf Ekstrom and contributors.
See http://admol.org/xcfun for more information. This is free soft-
ware; see the source code for copying conditions. There is ABSOLUTELY
NO WARRANTY; not even for MERCHANTABILITY or FITNESS FOR A PARTICULAR
PURPOSE. For details see the documentation. Scientific users of this 
library should cite U. Ekstrom, L. Visscher, R. Bast, A. J. Thorvald-
sen and K. Ruud; J.Chem.Theor.Comp. 2010, DOI: 10.1021/ct100117s
XCFun Version 0.99 
Your calculation utilizes the basis: 6-31G(d)
   H-He, Li-Ne : W. J. Hehre, R. Ditchfield and J.A. Pople, J. Chem. Phys. 56, 2257 (1972).
                 Note: He and Ne are unpublished basis sets taken from the Gaussian program.
                 Note: Li and B from J. D. Dill and J. A. Pople, J. Chem. Phys. 62, 2921 (1975).
   Na - Ar     : M. M. Francl, W. J. Pietro, W. J. Hehre, J. S. Binkley, M. S. Gordon, 
                 D. J. DeFrees and J. A. Pople, J. Chem. Phys. 77, 3654 (1982).
   K - Zn      : V. A. Rassolov, J. A. Pople, M. A. Ratner, and T. L. Windus, J. Chem. Phys. 109, 1223 (1998).

================================================================================
                                        WARNINGS
                       Please study these warnings very carefully!
================================================================================

Warning: TCutStore was < 0. Adjusted to Thresh (uncritical)

INFO   : the flag for use of LIBINT has been found!

================================================================================
                                       INPUT FILE
================================================================================
NAME = initial32.inp
|  1> ! WB97X-D3 6-31G(d) VerySlowConv
|  2> ! KDIIS NOSOSCF
|  3> %base "Scan_32"
|  4> 
|  5> %scf
|  6> maxiter 999
|  7> end
|  8> 
|  9> * xyz 0 1
| 10> C         -5.029695621919    2.434948041798    0.142005212786
| 11> O         -1.363979098557    2.366740820641    0.047017520099
| 12> H         -5.568436252611    3.136895066961   -0.460869822732
| 13> H         -5.561703240758    1.764592849708    0.785449915686
| 14> H         -3.956210904695    2.404305200261    0.102464564721
| 15> H         -0.407084881460    2.384148020632    0.060932609439
| 16> **                         ****END OF INPUT****
================================================================================

                       ****************************
                       * Single Point Calculation *
                       ****************************

---------------------------------
CARTESIAN COORDINATES (ANGSTROEM)
---------------------------------
  C     -5.029696    2.434948    0.142005
  O     -1.363979    2.366741    0.047018
  H     -5.568436    3.136895   -0.460870
  H     -5.561703    1.764593    0.785450
  H     -3.956211    2.404305    0.102465
  H     -0.407085    2.384148    0.060933

----------------------------
CARTESIAN COORDINATES (A.U.)
----------------------------
  NO LB      ZA    FRAG     MASS         X           Y           Z
   0 C     6.0000    0    12.011   -9.504747    4.601385    0.268351
   1 O     8.0000    0    15.999   -2.577547    4.472492    0.088850
   2 H     1.0000    0     1.008  -10.522820    5.927873   -0.870918
   3 H     1.0000    0     1.008  -10.510096    3.334597    1.484285
   4 H     1.0000    0     1.008   -7.476155    4.543478    0.193630
   5 H     1.0000    0     1.008   -0.769279    4.505387    0.115146

--------------------------------
INTERNAL COORDINATES (ANGSTROEM)
--------------------------------
 C      0   0   0     0.000000000000     0.00000000     0.00000000
 O      1   0   0     3.667581289682     0.00000000     0.00000000
 H      1   2   0     1.070714435199   120.03397845     0.00000000
 H      1   2   3     1.070714376365   120.03571286   181.07117813
 H      1   2   3     1.074649656726     0.84474961    90.59187119
 H      2   1   3     0.957153688305   176.86753050    89.41967128

---------------------------
INTERNAL COORDINATES (A.U.)
---------------------------
 C      0   0   0     0.000000000000     0.00000000     0.00000000
 O      1   0   0     6.930724211394     0.00000000     0.00000000
 H      1   2   0     2.023357050163   120.03397845     0.00000000
 H      1   2   3     2.023356938982   120.03571286   181.07117813
 H      1   2   3     2.030793541124     0.84474961    90.59187119
 H      2   1   3     1.808758338970   176.86753050    89.41967128

---------------------
BASIS SET INFORMATION
---------------------
There are 3 groups of distinct atoms

 Group   1 Type C   : 10s4p1d contracted to 3s2p1d pattern {631/31/1}
 Group   2 Type O   : 10s4p1d contracted to 3s2p1d pattern {631/31/1}
 Group   3 Type H   : 4s contracted to 2s pattern {31}

Atom   0C    basis set group =>   1
Atom   1O    basis set group =>   2
Atom   2H    basis set group =>   3
Atom   3H    basis set group =>   3
Atom   4H    basis set group =>   3
Atom   5H    basis set group =>   3
------------------------------------------------------------------------------
                           ORCA GTO INTEGRAL CALCULATION
------------------------------------------------------------------------------

                         BASIS SET STATISTICS AND STARTUP INFO

 # of primitive gaussian shells          ...   46
 # of primitive gaussian functions       ...   70
 # of contracted shells                  ...   20
 # of contracted basis functions         ...   36
 Highest angular momentum                ...    2
 Maximum contraction depth               ...    6
 Integral package used                   ... LIBINT
 Integral threshhold            Thresh   ...  1.000e-10
 Primitive cut-off              TCut     ...  1.000e-11


------------------------------ INTEGRAL EVALUATION ----------------------------


 * One electron integrals 
 Pre-screening matrix                    ... done
 Shell pair data                         ... done (   0.000 sec)

-------------------------------------------------------------------------------
                                 ORCA SCF
-------------------------------------------------------------------------------

------------
SCF SETTINGS
------------
Hamiltonian:
 Density Functional     Method          .... DFT(GTOs)
 Exchange Functional    Exchange        .... WB97X-D3
 Correlation Functional Correlation     .... WB97X-D3
 Gradients option       PostSCFGGA      .... off
 Hybrid DFT is turned on
   Fraction HF Exchange ScalHFX         ....  0.195728
   Scaling of DF-GGA-X  ScalDFX         ....  0.000000
   Scaling of DF-GGA-C  ScalDFC         ....  1.000000
   Scaling of DF-LDA-C  ScalLDAC        ....  1.000000
   Perturbative correction              ....  0.000000
 Long-range corrected/Screened/Range-Separated Hybrid DFT is turned on
   Amount of maximum screened exact exchange              ....  0.804272
   Range separation parameter mu (erf(mu*r12)/r12)        ....  0.250000


General Settings:
 Integral files         IntName         .... Scan_32
 Hartree-Fock type      HFTyp           .... RHF
 Total Charge           Charge          ....    0
 Multiplicity           Mult            ....    1
 Number of Electrons    NEL             ....   18
 Basis Dimension        Dim             ....   36
 Nuclear Repulsion      ENuc            ....     25.7260799414 Eh

Convergence Acceleration:
 DIIS                   CNVDIIS         .... on
   Start iteration      DIISMaxIt       ....     0
   Startup error        DIISStart       ....  0.200000
   # of expansion vecs  DIISMaxEq       ....     5
   Bias factor          DIISBfac        ....   1.050
   Max. coefficient     DIISMaxC        ....  10.000
 Newton-Raphson         CNVNR           .... off
 SOSCF                  CNVSOSCF        .... off
 Level Shifting         CNVShift        .... off
 Zerner damping         CNVZerner       .... off
 Static damping         CNVDamp         .... off
 Fernandez-Rico         CNVRico         .... off

SCF Procedure:
 Maximum # iterations   MaxIter         ....   999
 SCF integral mode      SCFMode         .... Direct
   Integral package                     .... LIBINT
 Reset frequeny         DirectResetFreq ....    20
 Integral Threshold     Thresh          ....  1.000e-10 Eh
 Primitive CutOff       TCut            ....  1.000e-11 Eh

Convergence Tolerance:
 Convergence Check Mode ConvCheckMode   .... All-Criteria
 Convergence forced     ConvForced      .... 0
 Energy Change          TolE            ....  1.000e-06 Eh
 Max Density Change     TolMaxP         ....  1.000e-05
 RMS Density Change     TolRMSP         ....  1.000e-06
 DIIS Error             TolErr          ....  1.000e-06


Diagonalization of the overlap matrix:
Smallest eigenvalue                        ... 2.817e-02
Time for diagonalization                   ...    0.001 sec
Threshold for overlap eigenvalues          ... 1.000e-08
Number of eigenvalues below threshold      ... 0
Time for construction of square roots      ...    0.005 sec
Total time needed                          ...    0.005 sec

-------------------
DFT GRID GENERATION
-------------------

General Integration Accuracy     IntAcc      ...  4.340
Radial Grid Type                 RadialGrid  ... Gauss-Chebyshev
Angular Grid (max. acc.)         AngularGrid ... Lebedev-110
Angular grid pruning method      GridPruning ... 3 (G Style)
Weight generation scheme         WeightScheme... Becke
Basis function cutoff            BFCut       ...    1.0000e-10
Integration weight cutoff        WCut        ...    1.0000e-14
Grids for H and He will be reduced by one unit

# of grid points (after initial pruning)     ...   6548 (   0.0 sec)
# of grid points (after weights+screening)   ...   6388 (   0.0 sec)
nearest neighbour list constructed           ...    0.0 sec
Grid point re-assignment to atoms done       ...    0.0 sec
Grid point division into batches done        ...    0.0 sec
Reduced shell lists constructed in    0.0 sec

Total number of grid points                  ...     6388
Total number of batches                      ...      104
Average number of points per batch           ...       61
Average number of grid points per atom       ...     1065
Average number of shells per batch           ...    14.78 (73.90%)
Average number of basis functions per batch  ...    26.11 (72.54%)
Average number of large shells per batch     ...    12.15 (82.22%)
Average number of large basis fcns per batch ...    21.37 (81.84%)
Maximum spatial batch extension              ...  19.05, 20.95, 23.73 au
Average spatial batch extension              ...   4.49,  5.74,  5.55 au

Time for grid setup =    0.044 sec

------------------------------
INITIAL GUESS: MODEL POTENTIAL
------------------------------
Loading Hartree-Fock densities                     ... done
Calculating cut-offs                               ... done
Setting up the integral package                    ... done
Initializing the effective Hamiltonian             ... done
Starting the Coulomb interaction                   ... done (   0.0 sec)
Reading the grid                                   ... done
Mapping shells                                     ... done
Starting the XC term evaluation                    ... done (   0.0 sec)
  promolecular density results
     # of electrons  =     18.003171304
     EX              =    -14.308545507
     EC              =     -0.540585840
     EX+EC           =    -14.849131347
Transforming the Hamiltonian                       ... done (   0.0 sec)
Diagonalizing the Hamiltonian                      ... done (   0.0 sec)
Back transforming the eigenvectors                 ... done (   0.0 sec)
Now organizing SCF variables                       ... done
                      ------------------
                      INITIAL GUESS DONE (   0.2 sec)
                      ------------------
--------------
SCF ITERATIONS
--------------
ITER       Energy         Delta-E        Max-DP      RMS-DP      [F,P]   Gradient Norm
               ***  Starting incremental Fock matrix formation  ***
                             ****Resetting KDIIS****
                             ****Turning on KDIIS(Cayley)****
  0   -115.1084470070   0.000000000000 0.05702764  0.00416763  0.2614476   0.175432190
  1   -115.1938022271  -0.085355220066 0.04839406  0.00381587  0.2054559   0.136213071
  2   -115.2442707532  -0.050468526104 0.06198703  0.00606498  0.1575199   0.107027521
  3   -115.2971762805  -0.052905527276 0.08646248  0.00886522  0.0897616   0.064998523
  4   -115.3225022722  -0.025325991695 0.02340971  0.00266396  0.0273920   0.015255881
  5   -115.3250117492  -0.002509477012 0.05102726  0.00491235  0.0160064   0.009856017
  6   -115.3271410048  -0.002129255642 0.00543611  0.00068931  0.0048305   0.003500784
  7   -115.3272957885  -0.000154783726 0.00878935  0.00063028  0.0013512   0.000863665
  8   -115.3273326639  -0.000036875363 0.00119936  0.00011758  0.0006247   0.000506222
  9   -115.3273412932  -0.000008629303 0.00120396  0.00012453  0.0007359   0.000484953
 10   -115.3273304027   0.000010890517 0.00252810  0.00028763  0.0006218   0.000581315
 11   -115.3273260724   0.000004330255 0.00033100  0.00003848  0.0003296   0.000278364
 12   -115.3273276024  -0.000001529973 0.00201994  0.00015508  0.0004118   0.000282455
                          ***Energy convergence achieved***
 13   -115.3273273358   0.000000266602 0.00047954  0.00003410  0.0002917   0.000178786
 14   -115.3273276197  -0.000000283894 0.00092169  0.00006678  0.0003485   0.000182843
 15   -115.3273272862   0.000000333478 0.00142377  0.00011915  0.0001964   0.000154931
 16   -115.3273278798  -0.000000593627 0.00041650  0.00004410  0.0001253   0.000108937

            ***Energy convergence in two consecutive cycles with***
                    ***'reasonable' density convergence***
                       *** signaling convergence ***

                    *** KDIIS BlockDiag ( 0.000 sec) ***

               *****************************************************
               *                     SUCCESS                       *
               *           SCF CONVERGED AFTER  17 CYCLES          *
               *****************************************************

Setting up the final grid:

General Integration Accuracy     IntAcc      ...  4.670
Radial Grid Type                 RadialGrid  ... Gauss-Chebyshev
Angular Grid (max. acc.)         AngularGrid ... Lebedev-302
Angular grid pruning method      GridPruning ... 3 (G Style)
Weight generation scheme         WeightScheme... Becke
Basis function cutoff            BFCut       ...    1.0000e-10
Integration weight cutoff        WCut        ...    1.0000e-14
Grids for H and He will be reduced by one unit

# of grid points (after initial pruning)     ...  26000 (   0.0 sec)
# of grid points (after weights+screening)   ...  25428 (   0.0 sec)
nearest neighbour list constructed           ...    0.0 sec
Grid point re-assignment to atoms done       ...    0.0 sec
Grid point division into batches done        ...    0.1 sec
Reduced shell lists constructed in    0.2 sec

Total number of grid points                  ...    25428
Total number of batches                      ...      401
Average number of points per batch           ...       63
Average number of grid points per atom       ...     4238
Average number of shells per batch           ...    13.31 (66.55%)
Average number of basis functions per batch  ...    23.42 (65.06%)
Average number of large shells per batch     ...    10.71 (80.43%)
Average number of large basis fcns per batch ...    19.03 (81.27%)
Maximum spatial batch extension              ...  20.15, 20.64, 20.64 au
Average spatial batch extension              ...   2.82,  3.36,  3.35 au

Final grid set up in    0.2 sec
Final integration                            ... done (   0.2 sec)
Change in XC energy                          ...    -0.000495831
Integrated number of electrons               ...    17.999996575
Previous integrated no of electrons          ...    17.992033287

----------------
TOTAL SCF ENERGY
----------------

Total Energy       :         -115.32782406 Eh           -3138.22964 eV

Components:
Nuclear Repulsion  :           25.72607994 Eh             700.04222 eV
Electronic Energy  :         -141.05390400 Eh           -3838.27186 eV
One Electron Energy:         -208.66979503 Eh           -5678.19380 eV
Two Electron Energy:           67.61589103 Eh            1839.92193 eV

Virial components:
Potential Energy   :         -230.11591645 Eh           -6261.77243 eV
Kinetic Energy     :          114.78809239 Eh            3123.54279 eV
Virial Ratio       :            2.00470198


DFT components:
N(Alpha)           :        8.999998287575 electrons
N(Beta)            :        8.999998287575 electrons
N(Total)           :       17.999996575150 electrons
E(XC)              :      -10.585929066755 Eh       

---------------
SCF CONVERGENCE
---------------

  Last Energy change         ...   -3.5228e-07  Tolerance :   1.0000e-06
  Last MAX-Density change    ...    7.1623e-05  Tolerance :   1.0000e-05
  Last RMS-Density change    ...    7.2528e-06  Tolerance :   1.0000e-06
  Last DIIS Error            ...    1.0613e-04  Tolerance :   1.0000e-06

             **** THE GBW FILE WAS UPDATED (Scan_32.gbw) ****
             **** DENSITY FILE WAS UPDATED (Scan_32.scfp.tmp) ****
             **** ENERGY FILE WAS UPDATED (Scan_32.en.tmp) ****
----------------
ORBITAL ENERGIES
----------------

  NO   OCC          E(Eh)            E(eV) 
   0   2.0000     -18.926096      -515.0053 
   1   2.0000     -10.574897      -287.7576 
   2   2.0000      -1.003209       -27.2987 
   3   2.0000      -0.759507       -20.6672 
   4   2.0000      -0.737479       -20.0678 
   5   2.0000      -0.716642       -19.5008 
   6   2.0000      -0.257993        -7.0204 
   7   2.0000      -0.097411        -2.6507 
   8   2.0000      -0.097366        -2.6495 
   9   0.0000      -0.222067        -6.0428 
  10   0.0000       0.084550         2.3007 
  11   0.0000       0.128098         3.4857 
  12   0.0000       0.204998         5.5783 
  13   0.0000       0.392396        10.6776 
  14   0.0000       0.474109        12.9012 
  15   0.0000       0.488175        13.2839 
  16   0.0000       0.498727        13.5710 
  17   0.0000       0.630161        17.1476 
  18   0.0000       0.838354        22.8128 
  19   0.0000       0.863685        23.5021 
  20   0.0000       0.927776        25.2461 
  21   0.0000       1.186090        32.2751 
  22   0.0000       1.255119        34.1535 
  23   0.0000       1.255534        34.1648 
  24   0.0000       1.517583        41.2955 
  25   0.0000       1.519135        41.3378 
  26   0.0000       1.520040        41.3624 
  27   0.0000       1.646358        44.7997 
  28   0.0000       1.924889        52.3789 
  29   0.0000       2.077097        56.5207 
  30   0.0000       2.080627        56.6167 
  31   0.0000       2.141079        58.2617 
  32   0.0000       2.141130        58.2631 
  33   0.0000       2.208721        60.1024 
  34   0.0000       2.209006        60.1101 
  35   0.0000       2.848257        77.5050 

                    ********************************
                    * MULLIKEN POPULATION ANALYSIS *
                    ********************************

-----------------------
MULLIKEN ATOMIC CHARGES
-----------------------
   0 C :   -0.109954
   1 O :   -1.190830
   2 H :    0.315307
   3 H :    0.315268
   4 H :    0.394914
   5 H :    0.275295
Sum of atomic charges:    0.0000000

--------------------------------
MULLIKEN REDUCED ORBITAL CHARGES
--------------------------------
  0 C s       :     3.552507  s :     3.552507
      pz      :     0.540319  p :     2.534830
      px      :     1.341345
      py      :     0.653166
      dz2     :     0.001523  d :     0.022618
      dxz     :     0.004838
      dyz     :     0.005395
      dx2y2   :     0.004992
      dxy     :     0.005871
  1 O s       :     3.902619  s :     3.902619
      pz      :     1.997439  p :     5.276025
      px      :     1.281238
      py      :     1.997348
      dz2     :     0.002463  d :     0.012185
      dxz     :     0.001168
      dyz     :     0.000002
      dx2y2   :     0.007380
      dxy     :     0.001172
  2 H s       :     0.684693  s :     0.684693
  3 H s       :     0.684732  s :     0.684732
  4 H s       :     0.605086  s :     0.605086
  5 H s       :     0.724705  s :     0.724705


                     *******************************
                     * LOEWDIN POPULATION ANALYSIS *
                     *******************************

----------------------
LOEWDIN ATOMIC CHARGES
----------------------
   0 C :    0.240989
   1 O :   -1.158213
   2 H :    0.219052
   3 H :    0.218946
   4 H :    0.262752
   5 H :    0.216474

-------------------------------
LOEWDIN REDUCED ORBITAL CHARGES
-------------------------------
  0 C s       :     3.204275  s :     3.204275
      pz      :     0.552380  p :     2.521780
      px      :     1.301558
      py      :     0.667842
      dz2     :     0.002129  d :     0.032956
      dxz     :     0.007499
      dyz     :     0.006904
      dx2y2   :     0.007330
      dxy     :     0.009093
  1 O s       :     3.761346  s :     3.761346
      pz      :     1.997581  p :     5.379740
      px      :     1.384660
      py      :     1.997499
      dz2     :     0.003696  d :     0.017127
      dxz     :     0.001172
      dyz     :     0.000002
      dx2y2   :     0.011078
      dxy     :     0.001178
  2 H s       :     0.780948  s :     0.780948
  3 H s       :     0.781054  s :     0.781054
  4 H s       :     0.737248  s :     0.737248
  5 H s       :     0.783526  s :     0.783526


                      *****************************
                      * MAYER POPULATION ANALYSIS *
                      *****************************

  NA   - Mulliken gross atomic population
  ZA   - Total nuclear charge
  QA   - Mulliken gross atomic charge
  VA   - Mayer's total valence
  BVA  - Mayer's bonded valence
  FA   - Mayer's free valence

  ATOM       NA         ZA         QA         VA         BVA        FA
  0 C      6.1100     6.0000    -0.1100     2.4557     2.4557     0.0000
  1 O      9.1908     8.0000    -1.1908     0.9942     0.9942    -0.0000
  2 H      0.6847     1.0000     0.3153     0.8730     0.8730     0.0000
  3 H      0.6847     1.0000     0.3153     0.8730     0.8730     0.0000
  4 H      0.6051     1.0000     0.3949     0.8962     0.8962     0.0000
  5 H      0.7247     1.0000     0.2753     0.8787     0.8787    -0.0000

  Mayer bond orders larger than 0.1
B(  0-C ,  2-H ) :   0.8763 B(  0-C ,  3-H ) :   0.8763 B(  0-C ,  4-H ) :   0.7219 
B(  1-O ,  4-H ) :   0.1538 B(  1-O ,  5-H ) :   0.8551 

-------
TIMINGS
-------

Total SCF time: 0 days 0 hours 0 min 5 sec 

Total time                  ....       5.284 sec
Sum of individual times     ....       5.060 sec  ( 95.8%)

Fock matrix formation       ....       4.650 sec  ( 88.0%)
  XC integration            ....       1.457 sec  ( 31.3% of F)
    Basis function eval.    ....       0.479 sec  ( 32.9% of XC)
    Density eval.           ....       0.069 sec  (  4.7% of XC)
    XC-Functional eval.     ....       0.411 sec  ( 28.2% of XC)
    XC-Potential eval.      ....       0.046 sec  (  3.2% of XC)
Diagonalization             ....       0.008 sec  (  0.1%)
Density matrix formation    ....       0.000 sec  (  0.0%)
Population analysis         ....       0.015 sec  (  0.3%)
Initial guess               ....       0.132 sec  (  2.5%)
Orbital Transformation      ....       0.000 sec  (  0.0%)
Orbital Orthonormalization  ....       0.000 sec  (  0.0%)
DIIS solution               ....       0.000 sec  (  0.0%)
Grid generation             ....       0.255 sec  (  4.8%)


-------------------------------------------------------------------------------
                          DFT DISPERSION CORRECTION                            
                                                                               
                              DFTD3 V3.1  Rev 1                                
                              USING zero damping                               
-------------------------------------------------------------------------------
The omegaB97X-D3 functional is recognized. Fit by Chai et al.
Active option DFTDOPT                   ...         3   

molecular C6(AA) [au] = 243.647872 


            DFT-D V3
 parameters
 s6 scaling factor         :     1.0000 
 rs6 scaling factor        :     1.2810 
 s8 scaling factor         :     1.0000 
 rs8 scaling factor        :     1.0940 
 Damping factor alpha6     :    14.0000 
 Damping factor alpha8     :    16.0000 
 ad hoc parameters k1-k3   :    16.0000     1.3333    -4.0000 

 Edisp/kcal,au: -0.263246428811  -0.000419509843 
 E6   /kcal   :  -0.120831408 
 E8   /kcal   :  -0.142415021 
 % E8         :  54.099507131 

-------------------------   ----------------
Dispersion correction           -0.000419510
-------------------------   ----------------


-------------------------   --------------------
FINAL SINGLE POINT ENERGY      -115.328243573324
-------------------------   --------------------


                            ***************************************
                            *     ORCA property calculations      *
                            ***************************************

                                    ---------------------
                                    Active property flags
                                    ---------------------
   (+) Dipole Moment


------------------------------------------------------------------------------
                       ORCA ELECTRIC PROPERTIES CALCULATION
------------------------------------------------------------------------------

Dipole Moment Calculation                       ... on
Quadrupole Moment Calculation                   ... off
Polarizability Calculation                      ... off
GBWName                                         ... Scan_32.gbw
Electron density file                           ... Scan_32.scfp.tmp

-------------
DIPOLE MOMENT
-------------
                                X             Y             Z
Electronic contribution:     -2.80755       0.03982       0.05878
Nuclear contribution   :     -3.05040       0.08644       0.11167
                        -----------------------------------------
Total Dipole Moment    :     -5.85794       0.12626       0.17045
                        -----------------------------------------
Magnitude (a.u.)       :      5.86178
Magnitude (Debye)      :     14.89947


Timings for individual modules:

Sum of individual times         ...        5.622 sec (=   0.094 min)
GTO integral calculation        ...        0.301 sec (=   0.005 min)   5.3 %
SCF iterations                  ...        5.321 sec (=   0.089 min)  94.7 %
                             ****ORCA TERMINATED NORMALLY****
TOTAL RUN TIME: 0 days 0 hours 0 minutes 5 seconds 977 msec
