
                                 *****************
                                 * O   R   C   A *
                                 *****************

           --- An Ab Initio, DFT and Semiempirical electronic structure package ---

                  #######################################################
                  #                        -***-                        #
                  #  Department of molecular theory and spectroscopy    #
                  #              Directorship: Frank Neese              #
                  # Max Planck Institute for Chemical Energy Conversion #
                  #                  D-45470 Muelheim/Ruhr              #
                  #                       Germany                       #
                  #                                                     #
                  #                  All rights reserved                #
                  #                        -***-                        #
                  #######################################################


                         Program Version 4.0.0.2 - RELEASE -


 With contributions from (in alphabetic order):
   Daniel Aravena         : Magnetic Properties
   Michael Atanasov       : Ab Initio Ligand Field Theory
   Ute Becker             : Parallelization
   Martin Brehm           : Molecular dynamics
   Dmytro Bykov           : SCF Hessian
   Vijay G. Chilkuri      : MRCI spin determinant printing
   Dipayan Datta          : RHF DLPNO-CCSD density
   Achintya Kumar Dutta   : EOM-CC, STEOM-CC
   Dmitry Ganyushin       : Spin-Orbit,Spin-Spin,Magnetic field MRCI
   Yang Guo               : DLPNO-NEVPT2, CIM, IAO-localization
   Andreas Hansen         : Spin unrestricted coupled pair/coupled cluster methods
   Lee Huntington         : MR-EOM, pCC
   Robert Izsak           : Overlap fitted RIJCOSX, COSX-SCS-MP3, EOM
   Christian Kollmar      : KDIIS, OOCD, Brueckner-CCSD(T), CCSD density
   Simone Kossmann        : Meta GGA functionals, TD-DFT gradient, OOMP2, MP2 Hessian
   Martin Krupicka        : AUTO-CI
   Dagmar Lenk            : GEPOL surface
   Dimitrios Liakos       : Extrapolation schemes; parallel MDCI
   Dimitrios Manganas     : ROCIS; embedding schemes
   Dimitrios Pantazis     : SARC Basis sets
   Taras Petrenko         : DFT Hessian,TD-DFT gradient, ASA, ECA, R-Raman, ABS, FL, XAS/XES, NRVS
   Peter Pinski           : DLPNO-MP2
   Christoph Reimann      : Effective Core Potentials
   Marius Retegan         : Local ZFS, SOC
   Christoph Riplinger    : Optimizer, TS searches, QM/MM, DLPNO-CCSD(T), (RO)-DLPNO pert. Triples
   Tobias Risthaus        : Range-separated hybrids, TD-DFT gradient, RPA, STAB
   Michael Roemelt        : Restricted open shell CIS
   Masaaki Saitow         : Open-shell DLPNO
   Barbara Sandhoefer     : DKH picture change effects
   Kantharuban Sivalingam : CASSCF convergence, NEVPT2, FIC-MRCI
   Georgi Stoychev        : AutoAux
   Boris Wezisla          : Elementary symmetry handling
   Frank Wennmohs         : Technical directorship


 We gratefully acknowledge several colleagues who have allowed us to
 interface, adapt or use parts of their codes:
   Stefan Grimme, W. Hujo, H. Kruse,             : VdW corrections, initial TS optimization,
                  C. Bannwarth                     DFT functionals, gCP, sTDA/sTD-DF
   Ed Valeev                                     : LibInt (2-el integral package), F12 methods
   Garnet Chan, S. Sharma, J. Yang, R. Olivares  : DMRG
   Ulf Ekstrom                                   : XCFun DFT Library
   Mihaly Kallay                                 : mrcc  (arbitrary order and MRCC methods)
   Jiri Pittner, Ondrej Demel                    : Mk-CCSD
   Frank Weinhold                                : gennbo (NPA and NBO analysis)
   Christopher J. Cramer and Donald G. Truhlar   : smd solvation model


 Your calculation uses the libint2 library for the computation of 2-el integrals
 For citations please refer to: http://libint.valeyev.net

 This ORCA versions uses:
   CBLAS   interface :  Fast vector & matrix operations
   LAPACKE interface :  Fast linear algebra routines
   SCALAPACK package :  Parallel linear algebra routines


Your calculation utilizes the atom-pairwise dispersion correction
with the zero-damping scheme (D30)
Cite in your paper:
S.Grimme, J.Antony, S.Ehrlich and H.Krieg, J.Chem.Phys., 132, (2010), 154104 
   

XCFun DFT library Copyright 2009-2010 Ulf Ekstrom and contributors.
See http://admol.org/xcfun for more information. This is free soft-
ware; see the source code for copying conditions. There is ABSOLUTELY
NO WARRANTY; not even for MERCHANTABILITY or FITNESS FOR A PARTICULAR
PURPOSE. For details see the documentation. Scientific users of this 
library should cite U. Ekstrom, L. Visscher, R. Bast, A. J. Thorvald-
sen and K. Ruud; J.Chem.Theor.Comp. 2010, DOI: 10.1021/ct100117s
XCFun Version 0.99 
Your calculation utilizes the basis: 6-31G(d)
   H-He, Li-Ne : W. J. Hehre, R. Ditchfield and J.A. Pople, J. Chem. Phys. 56, 2257 (1972).
                 Note: He and Ne are unpublished basis sets taken from the Gaussian program.
                 Note: Li and B from J. D. Dill and J. A. Pople, J. Chem. Phys. 62, 2921 (1975).
   Na - Ar     : M. M. Francl, W. J. Pietro, W. J. Hehre, J. S. Binkley, M. S. Gordon, 
                 D. J. DeFrees and J. A. Pople, J. Chem. Phys. 77, 3654 (1982).
   K - Zn      : V. A. Rassolov, J. A. Pople, M. A. Ratner, and T. L. Windus, J. Chem. Phys. 109, 1223 (1998).

================================================================================
                                        WARNINGS
                       Please study these warnings very carefully!
================================================================================

Warning: TCutStore was < 0. Adjusted to Thresh (uncritical)

INFO   : the flag for use of LIBINT has been found!

================================================================================
                                       INPUT FILE
================================================================================
NAME = initial35.inp
|  1> ! WB97X-D3 6-31G(d) VerySlowConv
|  2> ! KDIIS NOSOSCF
|  3> %base "Scan_35"
|  4> 
|  5> %scf
|  6> maxiter 999
|  7> end
|  8> 
|  9> * xyz 0 1
| 10> C         -5.132319614859    2.436622569776    0.144405789144
| 11> O         -1.159046726484    2.369057443134    0.048447411819
| 12> H         -5.670545955402    3.136530763128   -0.460966231796
| 13> H         -5.663804927981    1.763977347905    0.785581309236
| 14> H         -4.059839911970    2.409819085315    0.109092473709
| 15> H         -0.201552863305    2.375622790744    0.050439247888
| 16> **                         ****END OF INPUT****
================================================================================

                       ****************************
                       * Single Point Calculation *
                       ****************************

---------------------------------
CARTESIAN COORDINATES (ANGSTROEM)
---------------------------------
  C     -5.132320    2.436623    0.144406
  O     -1.159047    2.369057    0.048447
  H     -5.670546    3.136531   -0.460966
  H     -5.663805    1.763977    0.785581
  H     -4.059840    2.409819    0.109092
  H     -0.201553    2.375623    0.050439

----------------------------
CARTESIAN COORDINATES (A.U.)
----------------------------
  NO LB      ZA    FRAG     MASS         X           Y           Z
   0 C     6.0000    0    12.011   -9.698679    4.604549    0.272887
   1 O     8.0000    0    15.999   -2.190281    4.476870    0.091552
   2 H     1.0000    0     1.008  -10.715779    5.927184   -0.871100
   3 H     1.0000    0     1.008  -10.703040    3.333434    1.484534
   4 H     1.0000    0     1.008   -7.671986    4.553898    0.206155
   5 H     1.0000    0     1.008   -0.380880    4.489276    0.095316

--------------------------------
INTERNAL COORDINATES (ANGSTROEM)
--------------------------------
 C      0   0   0     0.000000000000     0.00000000     0.00000000
 O      1   0   0     3.975005723520     0.00000000     0.00000000
 H      1   2   0     1.070529941904   120.00058571     0.00000000
 H      1   2   3     1.070529906231   120.00207926   180.83269168
 H      1   2   3     1.073395626102     0.67903505    90.47712668
 H      2   1   3     0.957518443282   177.96875258    89.53742991

---------------------------
INTERNAL COORDINATES (A.U.)
---------------------------
 C      0   0   0     0.000000000000     0.00000000     0.00000000
 O      1   0   0     7.511672198221     0.00000000     0.00000000
 H      1   2   0     2.023008408361   120.00058571     0.00000000
 H      1   2   3     2.023008340949   120.00207926   180.83269168
 H      1   2   3     2.028423766682     0.67903505    90.47712668
 H      2   1   3     1.809447625982   177.96875258    89.53742991

---------------------
BASIS SET INFORMATION
---------------------
There are 3 groups of distinct atoms

 Group   1 Type C   : 10s4p1d contracted to 3s2p1d pattern {631/31/1}
 Group   2 Type O   : 10s4p1d contracted to 3s2p1d pattern {631/31/1}
 Group   3 Type H   : 4s contracted to 2s pattern {31}

Atom   0C    basis set group =>   1
Atom   1O    basis set group =>   2
Atom   2H    basis set group =>   3
Atom   3H    basis set group =>   3
Atom   4H    basis set group =>   3
Atom   5H    basis set group =>   3
------------------------------------------------------------------------------
                           ORCA GTO INTEGRAL CALCULATION
------------------------------------------------------------------------------

                         BASIS SET STATISTICS AND STARTUP INFO

 # of primitive gaussian shells          ...   46
 # of primitive gaussian functions       ...   70
 # of contracted shells                  ...   20
 # of contracted basis functions         ...   36
 Highest angular momentum                ...    2
 Maximum contraction depth               ...    6
 Integral package used                   ... LIBINT
 Integral threshhold            Thresh   ...  1.000e-10
 Primitive cut-off              TCut     ...  1.000e-11


------------------------------ INTEGRAL EVALUATION ----------------------------


 * One electron integrals 
 Pre-screening matrix                    ... done
 Shell pair data                         ... done (   0.000 sec)

-------------------------------------------------------------------------------
                                 ORCA SCF
-------------------------------------------------------------------------------

------------
SCF SETTINGS
------------
Hamiltonian:
 Density Functional     Method          .... DFT(GTOs)
 Exchange Functional    Exchange        .... WB97X-D3
 Correlation Functional Correlation     .... WB97X-D3
 Gradients option       PostSCFGGA      .... off
 Hybrid DFT is turned on
   Fraction HF Exchange ScalHFX         ....  0.195728
   Scaling of DF-GGA-X  ScalDFX         ....  0.000000
   Scaling of DF-GGA-C  ScalDFC         ....  1.000000
   Scaling of DF-LDA-C  ScalLDAC        ....  1.000000
   Perturbative correction              ....  0.000000
 Long-range corrected/Screened/Range-Separated Hybrid DFT is turned on
   Amount of maximum screened exact exchange              ....  0.804272
   Range separation parameter mu (erf(mu*r12)/r12)        ....  0.250000


General Settings:
 Integral files         IntName         .... Scan_35
 Hartree-Fock type      HFTyp           .... RHF
 Total Charge           Charge          ....    0
 Multiplicity           Mult            ....    1
 Number of Electrons    NEL             ....   18
 Basis Dimension        Dim             ....   36
 Nuclear Repulsion      ENuc            ....     24.8258980600 Eh

Convergence Acceleration:
 DIIS                   CNVDIIS         .... on
   Start iteration      DIISMaxIt       ....     0
   Startup error        DIISStart       ....  0.200000
   # of expansion vecs  DIISMaxEq       ....     5
   Bias factor          DIISBfac        ....   1.050
   Max. coefficient     DIISMaxC        ....  10.000
 Newton-Raphson         CNVNR           .... off
 SOSCF                  CNVSOSCF        .... off
 Level Shifting         CNVShift        .... off
 Zerner damping         CNVZerner       .... off
 Static damping         CNVDamp         .... off
 Fernandez-Rico         CNVRico         .... off

SCF Procedure:
 Maximum # iterations   MaxIter         ....   999
 SCF integral mode      SCFMode         .... Direct
   Integral package                     .... LIBINT
 Reset frequeny         DirectResetFreq ....    20
 Integral Threshold     Thresh          ....  1.000e-10 Eh
 Primitive CutOff       TCut            ....  1.000e-11 Eh

Convergence Tolerance:
 Convergence Check Mode ConvCheckMode   .... All-Criteria
 Convergence forced     ConvForced      .... 0
 Energy Change          TolE            ....  1.000e-06 Eh
 Max Density Change     TolMaxP         ....  1.000e-05
 RMS Density Change     TolRMSP         ....  1.000e-06
 DIIS Error             TolErr          ....  1.000e-06


Diagonalization of the overlap matrix:
Smallest eigenvalue                        ... 2.969e-02
Time for diagonalization                   ...    0.001 sec
Threshold for overlap eigenvalues          ... 1.000e-08
Number of eigenvalues below threshold      ... 0
Time for construction of square roots      ...    0.005 sec
Total time needed                          ...    0.006 sec

-------------------
DFT GRID GENERATION
-------------------

General Integration Accuracy     IntAcc      ...  4.340
Radial Grid Type                 RadialGrid  ... Gauss-Chebyshev
Angular Grid (max. acc.)         AngularGrid ... Lebedev-110
Angular grid pruning method      GridPruning ... 3 (G Style)
Weight generation scheme         WeightScheme... Becke
Basis function cutoff            BFCut       ...    1.0000e-10
Integration weight cutoff        WCut        ...    1.0000e-14
Grids for H and He will be reduced by one unit

# of grid points (after initial pruning)     ...   6548 (   0.0 sec)
# of grid points (after weights+screening)   ...   6398 (   0.0 sec)
nearest neighbour list constructed           ...    0.0 sec
Grid point re-assignment to atoms done       ...    0.0 sec
Grid point division into batches done        ...    0.0 sec
Reduced shell lists constructed in    0.0 sec

Total number of grid points                  ...     6398
Total number of batches                      ...      104
Average number of points per batch           ...       61
Average number of grid points per atom       ...     1066
Average number of shells per batch           ...    14.24 (71.19%)
Average number of basis functions per batch  ...    25.08 (69.66%)
Average number of large shells per batch     ...    11.51 (80.87%)
Average number of large basis fcns per batch ...    20.60 (82.15%)
Maximum spatial batch extension              ...  19.05, 20.95, 23.74 au
Average spatial batch extension              ...   4.48,  5.66,  5.54 au

Time for grid setup =    0.044 sec

------------------------------
INITIAL GUESS: MODEL POTENTIAL
------------------------------
Loading Hartree-Fock densities                     ... done
Calculating cut-offs                               ... done
Setting up the integral package                    ... done
Initializing the effective Hamiltonian             ... done
Starting the Coulomb interaction                   ... done (   0.0 sec)
Reading the grid                                   ... done
Mapping shells                                     ... done
Starting the XC term evaluation                    ... done (   0.0 sec)
  promolecular density results
     # of electrons  =     18.002981430
     EX              =    -14.307805182
     EC              =     -0.540116132
     EX+EC           =    -14.847921314
Transforming the Hamiltonian                       ... done (   0.0 sec)
Diagonalizing the Hamiltonian                      ... done (   0.0 sec)
Back transforming the eigenvectors                 ... done (   0.0 sec)
Now organizing SCF variables                       ... done
                      ------------------
                      INITIAL GUESS DONE (   0.2 sec)
                      ------------------
--------------
SCF ITERATIONS
--------------
ITER       Energy         Delta-E        Max-DP      RMS-DP      [F,P]   Gradient Norm
               ***  Starting incremental Fock matrix formation  ***
                             ****Resetting KDIIS****
                             ****Turning on KDIIS(Cayley)****
  0   -115.0928620666   0.000000000000 0.05800202  0.00401388  0.2608999   0.175605533
  1   -115.1765410458  -0.083678979163 0.05059101  0.00369092  0.2059897   0.137139141
  2   -115.2270905900  -0.050549544162 0.06120162  0.00550506  0.1580661   0.107639807
  3   -115.2774915913  -0.050401001303 0.08888558  0.00820214  0.0935853   0.066767904
  4   -115.3070732508  -0.029581659544 0.02151513  0.00233632  0.0186286   0.013304358
  5   -115.3083600714  -0.001286820597 0.03714853  0.00384684  0.0107853   0.008095602
  6   -115.3098076242  -0.001447552810 0.01102075  0.00092796  0.0035360   0.002565604
  7   -115.3099271403  -0.000119516126 0.00839068  0.00066184  0.0011853   0.000943248
  8   -115.3099674145  -0.000040274172 0.00504109  0.00043224  0.0007681   0.000584044
  9   -115.3099860537  -0.000018639182 0.00219375  0.00017897  0.0006783   0.000451010
 10   -115.3099832435   0.000002810164 0.00137564  0.00014800  0.0006448   0.000500681
 11   -115.3099730778   0.000010165689 0.00268843  0.00023603  0.0005866   0.000409580
 12   -115.3099769158  -0.000003837968 0.00082103  0.00009159  0.0004319   0.000316307
 13   -115.3099784084  -0.000001492599 0.00043626  0.00005398  0.0005097   0.000275142
 14   -115.3099760774   0.000002331041 0.00189376  0.00018975  0.0003662   0.000242746
 15   -115.3099773958  -0.000001318415 0.00092517  0.00010655  0.0003036   0.000247569
 16   -115.3099784797  -0.000001083887 0.00110197  0.00009908  0.0002212   0.000172467
                          ***Energy convergence achieved***
 17   -115.3099791326  -0.000000652910 0.00013635  0.00001064  0.0001440   0.000106524
 18   -115.3099792033  -0.000000070680 0.00010644  0.00001355  0.0001472   0.000113106
 19   -115.3099791479   0.000000055340 0.00011287  0.00001196  0.0001727   0.000120250
               *** Restarting incremental Fock matrix formation ***
                             ****Resetting KDIIS****

            ***Energy convergence in two consecutive cycles with***
                    ***'reasonable' density convergence***
                       *** signaling convergence ***

                    *** KDIIS BlockDiag ( 0.000 sec) ***

               *****************************************************
               *                     SUCCESS                       *
               *           SCF CONVERGED AFTER  20 CYCLES          *
               *****************************************************

Setting up the final grid:

General Integration Accuracy     IntAcc      ...  4.670
Radial Grid Type                 RadialGrid  ... Gauss-Chebyshev
Angular Grid (max. acc.)         AngularGrid ... Lebedev-302
Angular grid pruning method      GridPruning ... 3 (G Style)
Weight generation scheme         WeightScheme... Becke
Basis function cutoff            BFCut       ...    1.0000e-10
Integration weight cutoff        WCut        ...    1.0000e-14
Grids for H and He will be reduced by one unit

# of grid points (after initial pruning)     ...  26000 (   0.0 sec)
# of grid points (after weights+screening)   ...  25463 (   0.0 sec)
nearest neighbour list constructed           ...    0.0 sec
Grid point re-assignment to atoms done       ...    0.0 sec
Grid point division into batches done        ...    0.1 sec
Reduced shell lists constructed in    0.2 sec

Total number of grid points                  ...    25463
Total number of batches                      ...      402
Average number of points per batch           ...       63
Average number of grid points per atom       ...     4244
Average number of shells per batch           ...    12.89 (64.43%)
Average number of basis functions per batch  ...    22.63 (62.85%)
Average number of large shells per batch     ...    10.17 (78.93%)
Average number of large basis fcns per batch ...    18.06 (79.80%)
Maximum spatial batch extension              ...  20.24, 20.64, 20.64 au
Average spatial batch extension              ...   2.86,  3.38,  3.36 au

Final grid set up in    0.2 sec
Final integration                            ... done (   0.2 sec)
Change in XC energy                          ...    -0.000291248
Integrated number of electrons               ...    18.000014930
Previous integrated no of electrons          ...    17.992097750

----------------
TOTAL SCF ENERGY
----------------

Total Energy       :         -115.31027043 Eh           -3137.75198 eV

Components:
Nuclear Repulsion  :           24.82589806 Eh             675.54703 eV
Electronic Energy  :         -140.13616849 Eh           -3813.29901 eV
One Electron Energy:         -206.87945177 Eh           -5629.47608 eV
Two Electron Energy:           66.74328328 Eh            1816.17707 eV

Virial components:
Potential Energy   :         -230.10580081 Eh           -6261.49717 eV
Kinetic Energy     :          114.79553038 Eh            3123.74519 eV
Virial Ratio       :            2.00448397


DFT components:
N(Alpha)           :        9.000007464846 electrons
N(Beta)            :        9.000007464846 electrons
N(Total)           :       18.000014929692 electrons
E(XC)              :      -10.589730253618 Eh       

---------------
SCF CONVERGENCE
---------------

  Last Energy change         ...   -3.0535e-08  Tolerance :   1.0000e-06
  Last MAX-Density change    ...    5.4502e-05  Tolerance :   1.0000e-05
  Last RMS-Density change    ...    5.3035e-06  Tolerance :   1.0000e-06
  Last DIIS Error            ...    1.8798e-04  Tolerance :   1.0000e-06

             **** THE GBW FILE WAS UPDATED (Scan_35.gbw) ****
             **** DENSITY FILE WAS UPDATED (Scan_35.scfp.tmp) ****
             **** ENERGY FILE WAS UPDATED (Scan_35.en.tmp) ****
----------------
ORBITAL ENERGIES
----------------

  NO   OCC          E(Eh)            E(eV) 
   0   2.0000     -18.908094      -514.5154 
   1   2.0000     -10.592051      -288.2244 
   2   2.0000      -1.019097       -27.7310 
   3   2.0000      -0.752142       -20.4668 
   4   2.0000      -0.742201       -20.1963 
   5   2.0000      -0.734887       -19.9973 
   6   2.0000      -0.238443        -6.4884 
   7   2.0000      -0.079935        -2.1751 
   8   2.0000      -0.079904        -2.1743 
   9   0.0000      -0.237176        -6.4539 
  10   0.0000       0.072761         1.9799 
  11   0.0000       0.116277         3.1640 
  12   0.0000       0.179131         4.8744 
  13   0.0000       0.401117        10.9149 
  14   0.0000       0.460141        12.5211 
  15   0.0000       0.472845        12.8668 
  16   0.0000       0.484503        13.1840 
  17   0.0000       0.614807        16.7297 
  18   0.0000       0.825309        22.4578 
  19   0.0000       0.844948        22.9922 
  20   0.0000       0.902893        24.5690 
  21   0.0000       1.200414        32.6649 
  22   0.0000       1.271511        34.5996 
  23   0.0000       1.271627        34.6027 
  24   0.0000       1.428880        38.8818 
  25   0.0000       1.501789        40.8657 
  26   0.0000       1.502886        40.8956 
  27   0.0000       1.662037        45.2263 
  28   0.0000       1.906871        51.8886 
  29   0.0000       2.061338        56.0919 
  30   0.0000       2.064922        56.1894 
  31   0.0000       2.158923        58.7473 
  32   0.0000       2.158962        58.7484 
  33   0.0000       2.226072        60.5745 
  34   0.0000       2.226394        60.5833 
  35   0.0000       2.866460        78.0003 

                    ********************************
                    * MULLIKEN POPULATION ANALYSIS *
                    ********************************

-----------------------
MULLIKEN ATOMIC CHARGES
-----------------------
   0 C :   -0.105853
   1 O :   -1.212423
   2 H :    0.323491
   3 H :    0.323459
   4 H :    0.407282
   5 H :    0.264044
Sum of atomic charges:   -0.0000000

--------------------------------
MULLIKEN REDUCED ORBITAL CHARGES
--------------------------------
  0 C s       :     3.549374  s :     3.549374
      pz      :     0.544792  p :     2.533761
      px      :     1.330128
      py      :     0.658840
      dz2     :     0.001596  d :     0.022718
      dxz     :     0.004717
      dyz     :     0.005430
      dx2y2   :     0.005248
      dxy     :     0.005726
  1 O s       :     3.909761  s :     3.909761
      pz      :     1.998221  p :     5.289981
      px      :     1.293553
      py      :     1.998207
      dz2     :     0.002564  d :     0.012681
      dxz     :     0.001212
      dyz     :     0.000000
      dx2y2   :     0.007690
      dxy     :     0.001214
  2 H s       :     0.676509  s :     0.676509
  3 H s       :     0.676541  s :     0.676541
  4 H s       :     0.592718  s :     0.592718
  5 H s       :     0.735956  s :     0.735956


                     *******************************
                     * LOEWDIN POPULATION ANALYSIS *
                     *******************************

----------------------
LOEWDIN ATOMIC CHARGES
----------------------
   0 C :    0.248521
   1 O :   -1.168965
   2 H :    0.223519
   3 H :    0.223431
   4 H :    0.267436
   5 H :    0.206059

-------------------------------
LOEWDIN REDUCED ORBITAL CHARGES
-------------------------------
  0 C s       :     3.200782  s :     3.200782
      pz      :     0.554529  p :     2.517733
      px      :     1.292524
      py      :     0.670680
      dz2     :     0.002220  d :     0.032964
      dxz     :     0.007303
      dyz     :     0.006912
      dx2y2   :     0.007673
      dxy     :     0.008857
  1 O s       :     3.770560  s :     3.770560
      pz      :     1.998266  p :     5.380270
      px      :     1.383751
      py      :     1.998252
      dz2     :     0.003928  d :     0.018135
      dxz     :     0.001212
      dyz     :     0.000000
      dx2y2   :     0.011780
      dxy     :     0.001215
  2 H s       :     0.776481  s :     0.776481
  3 H s       :     0.776569  s :     0.776569
  4 H s       :     0.732564  s :     0.732564
  5 H s       :     0.793941  s :     0.793941


                      *****************************
                      * MAYER POPULATION ANALYSIS *
                      *****************************

  NA   - Mulliken gross atomic population
  ZA   - Total nuclear charge
  QA   - Mulliken gross atomic charge
  VA   - Mayer's total valence
  BVA  - Mayer's bonded valence
  FA   - Mayer's free valence

  ATOM       NA         ZA         QA         VA         BVA        FA
  0 C      6.1059     6.0000    -0.1059     2.4868     2.4868    -0.0000
  1 O      9.2124     8.0000    -1.2124     0.9534     0.9534    -0.0000
  2 H      0.6765     1.0000     0.3235     0.8688     0.8688     0.0000
  3 H      0.6765     1.0000     0.3235     0.8688     0.8688     0.0000
  4 H      0.5927     1.0000     0.4073     0.8612     0.8612     0.0000
  5 H      0.7360     1.0000     0.2640     0.8841     0.8841     0.0000

  Mayer bond orders larger than 0.1
B(  0-C ,  2-H ) :   0.8728 B(  0-C ,  3-H ) :   0.8728 B(  0-C ,  4-H ) :   0.7537 
B(  1-O ,  5-H ) :   0.8683 

-------
TIMINGS
-------

Total SCF time: 0 days 0 hours 0 min 6 sec 

Total time                  ....       6.196 sec
Sum of individual times     ....       5.881 sec  ( 94.9%)

Fock matrix formation       ....       5.478 sec  ( 88.4%)
  XC integration            ....       1.696 sec  ( 31.0% of F)
    Basis function eval.    ....       0.521 sec  ( 30.7% of XC)
    Density eval.           ....       0.076 sec  (  4.5% of XC)
    XC-Functional eval.     ....       0.472 sec  ( 27.8% of XC)
    XC-Potential eval.      ....       0.048 sec  (  2.8% of XC)
Diagonalization             ....       0.009 sec  (  0.1%)
Density matrix formation    ....       0.000 sec  (  0.0%)
Population analysis         ....       0.013 sec  (  0.2%)
Initial guess               ....       0.130 sec  (  2.1%)
Orbital Transformation      ....       0.000 sec  (  0.0%)
Orbital Orthonormalization  ....       0.000 sec  (  0.0%)
DIIS solution               ....       0.000 sec  (  0.0%)
Grid generation             ....       0.251 sec  (  4.1%)


-------------------------------------------------------------------------------
                          DFT DISPERSION CORRECTION                            
                                                                               
                              DFTD3 V3.1  Rev 1                                
                              USING zero damping                               
-------------------------------------------------------------------------------
The omegaB97X-D3 functional is recognized. Fit by Chai et al.
Active option DFTDOPT                   ...         3   

molecular C6(AA) [au] = 243.649363 


            DFT-D V3
 parameters
 s6 scaling factor         :     1.0000 
 rs6 scaling factor        :     1.2810 
 s8 scaling factor         :     1.0000 
 rs8 scaling factor        :     1.0940 
 Damping factor alpha6     :    14.0000 
 Damping factor alpha8     :    16.0000 
 ad hoc parameters k1-k3   :    16.0000     1.3333    -4.0000 

 Edisp/kcal,au: -0.220362781460  -0.000351170408 
 E6   /kcal   :  -0.118009037 
 E8   /kcal   :  -0.102353745 
 % E8         :  46.447836692 

-------------------------   ----------------
Dispersion correction           -0.000351170
-------------------------   ----------------


-------------------------   --------------------
FINAL SINGLE POINT ENERGY      -115.310621596441
-------------------------   --------------------


                            ***************************************
                            *     ORCA property calculations      *
                            ***************************************

                                    ---------------------
                                    Active property flags
                                    ---------------------
   (+) Dipole Moment


------------------------------------------------------------------------------
                       ORCA ELECTRIC PROPERTIES CALCULATION
------------------------------------------------------------------------------

Dipole Moment Calculation                       ... on
Quadrupole Moment Calculation                   ... off
Polarizability Calculation                      ... off
GBWName                                         ... Scan_35.gbw
Electron density file                           ... Scan_35.scfp.tmp

-------------
DIPOLE MOMENT
-------------
                                X             Y             Z
Electronic contribution:     -3.21325       0.04618       0.06801
Nuclear contribution   :     -3.37180       0.07648       0.10248
                        -----------------------------------------
Total Dipole Moment    :     -6.58505       0.12266       0.17049
                        -----------------------------------------
Magnitude (a.u.)       :      6.58840
Magnitude (Debye)      :     16.74639


Timings for individual modules:

Sum of individual times         ...        6.524 sec (=   0.109 min)
GTO integral calculation        ...        0.294 sec (=   0.005 min)   4.5 %
SCF iterations                  ...        6.230 sec (=   0.104 min)  95.5 %
                             ****ORCA TERMINATED NORMALLY****
TOTAL RUN TIME: 0 days 0 hours 0 minutes 6 seconds 867 msec
