
                                 *****************
                                 * O   R   C   A *
                                 *****************

           --- An Ab Initio, DFT and Semiempirical electronic structure package ---

                  #######################################################
                  #                        -***-                        #
                  #  Department of molecular theory and spectroscopy    #
                  #              Directorship: Frank Neese              #
                  # Max Planck Institute for Chemical Energy Conversion #
                  #                  D-45470 Muelheim/Ruhr              #
                  #                       Germany                       #
                  #                                                     #
                  #                  All rights reserved                #
                  #                        -***-                        #
                  #######################################################


                         Program Version 4.0.0.2 - RELEASE -


 With contributions from (in alphabetic order):
   Daniel Aravena         : Magnetic Properties
   Michael Atanasov       : Ab Initio Ligand Field Theory
   Ute Becker             : Parallelization
   Martin Brehm           : Molecular dynamics
   Dmytro Bykov           : SCF Hessian
   Vijay G. Chilkuri      : MRCI spin determinant printing
   Dipayan Datta          : RHF DLPNO-CCSD density
   Achintya Kumar Dutta   : EOM-CC, STEOM-CC
   Dmitry Ganyushin       : Spin-Orbit,Spin-Spin,Magnetic field MRCI
   Yang Guo               : DLPNO-NEVPT2, CIM, IAO-localization
   Andreas Hansen         : Spin unrestricted coupled pair/coupled cluster methods
   Lee Huntington         : MR-EOM, pCC
   Robert Izsak           : Overlap fitted RIJCOSX, COSX-SCS-MP3, EOM
   Christian Kollmar      : KDIIS, OOCD, Brueckner-CCSD(T), CCSD density
   Simone Kossmann        : Meta GGA functionals, TD-DFT gradient, OOMP2, MP2 Hessian
   Martin Krupicka        : AUTO-CI
   Dagmar Lenk            : GEPOL surface
   Dimitrios Liakos       : Extrapolation schemes; parallel MDCI
   Dimitrios Manganas     : ROCIS; embedding schemes
   Dimitrios Pantazis     : SARC Basis sets
   Taras Petrenko         : DFT Hessian,TD-DFT gradient, ASA, ECA, R-Raman, ABS, FL, XAS/XES, NRVS
   Peter Pinski           : DLPNO-MP2
   Christoph Reimann      : Effective Core Potentials
   Marius Retegan         : Local ZFS, SOC
   Christoph Riplinger    : Optimizer, TS searches, QM/MM, DLPNO-CCSD(T), (RO)-DLPNO pert. Triples
   Tobias Risthaus        : Range-separated hybrids, TD-DFT gradient, RPA, STAB
   Michael Roemelt        : Restricted open shell CIS
   Masaaki Saitow         : Open-shell DLPNO
   Barbara Sandhoefer     : DKH picture change effects
   Kantharuban Sivalingam : CASSCF convergence, NEVPT2, FIC-MRCI
   Georgi Stoychev        : AutoAux
   Boris Wezisla          : Elementary symmetry handling
   Frank Wennmohs         : Technical directorship


 We gratefully acknowledge several colleagues who have allowed us to
 interface, adapt or use parts of their codes:
   Stefan Grimme, W. Hujo, H. Kruse,             : VdW corrections, initial TS optimization,
                  C. Bannwarth                     DFT functionals, gCP, sTDA/sTD-DF
   Ed Valeev                                     : LibInt (2-el integral package), F12 methods
   Garnet Chan, S. Sharma, J. Yang, R. Olivares  : DMRG
   Ulf Ekstrom                                   : XCFun DFT Library
   Mihaly Kallay                                 : mrcc  (arbitrary order and MRCC methods)
   Jiri Pittner, Ondrej Demel                    : Mk-CCSD
   Frank Weinhold                                : gennbo (NPA and NBO analysis)
   Christopher J. Cramer and Donald G. Truhlar   : smd solvation model


 Your calculation uses the libint2 library for the computation of 2-el integrals
 For citations please refer to: http://libint.valeyev.net

 This ORCA versions uses:
   CBLAS   interface :  Fast vector & matrix operations
   LAPACKE interface :  Fast linear algebra routines
   SCALAPACK package :  Parallel linear algebra routines


Your calculation utilizes the atom-pairwise dispersion correction
with the zero-damping scheme (D30)
Cite in your paper:
S.Grimme, J.Antony, S.Ehrlich and H.Krieg, J.Chem.Phys., 132, (2010), 154104 
   

XCFun DFT library Copyright 2009-2010 Ulf Ekstrom and contributors.
See http://admol.org/xcfun for more information. This is free soft-
ware; see the source code for copying conditions. There is ABSOLUTELY
NO WARRANTY; not even for MERCHANTABILITY or FITNESS FOR A PARTICULAR
PURPOSE. For details see the documentation. Scientific users of this 
library should cite U. Ekstrom, L. Visscher, R. Bast, A. J. Thorvald-
sen and K. Ruud; J.Chem.Theor.Comp. 2010, DOI: 10.1021/ct100117s
XCFun Version 0.99 
Your calculation utilizes the basis: 6-31G(d)
   H-He, Li-Ne : W. J. Hehre, R. Ditchfield and J.A. Pople, J. Chem. Phys. 56, 2257 (1972).
                 Note: He and Ne are unpublished basis sets taken from the Gaussian program.
                 Note: Li and B from J. D. Dill and J. A. Pople, J. Chem. Phys. 62, 2921 (1975).
   Na - Ar     : M. M. Francl, W. J. Pietro, W. J. Hehre, J. S. Binkley, M. S. Gordon, 
                 D. J. DeFrees and J. A. Pople, J. Chem. Phys. 77, 3654 (1982).
   K - Zn      : V. A. Rassolov, J. A. Pople, M. A. Ratner, and T. L. Windus, J. Chem. Phys. 109, 1223 (1998).

================================================================================
                                        WARNINGS
                       Please study these warnings very carefully!
================================================================================

Warning: TCutStore was < 0. Adjusted to Thresh (uncritical)

INFO   : the flag for use of LIBINT has been found!

================================================================================
                                       INPUT FILE
================================================================================
NAME = initial36.inp
|  1> ! WB97X-D3 6-31G(d) VerySlowConv
|  2> ! KDIIS NOSOSCF
|  3> %base "Scan_36"
|  4> 
|  5> %scf
|  6> maxiter 999
|  7> end
|  8> 
|  9> * xyz 0 1
| 10> C         -5.166462320360    2.437178266194    0.145202921380
| 11> O         -1.090728653922    2.369236709118    0.048272015794
| 12> H         -5.704640894003    3.136525746174   -0.460776994515
| 13> H         -5.697898103386    1.763981225789    0.785762383703
| 14> H         -4.094260379557    2.411346461894    0.110959537062
| 15> H         -0.133119648772    2.373361590833    0.047580136577
| 16> **                         ****END OF INPUT****
================================================================================

                       ****************************
                       * Single Point Calculation *
                       ****************************

---------------------------------
CARTESIAN COORDINATES (ANGSTROEM)
---------------------------------
  C     -5.166462    2.437178    0.145203
  O     -1.090729    2.369237    0.048272
  H     -5.704641    3.136526   -0.460777
  H     -5.697898    1.763981    0.785762
  H     -4.094260    2.411346    0.110960
  H     -0.133120    2.373362    0.047580

----------------------------
CARTESIAN COORDINATES (A.U.)
----------------------------
  NO LB      ZA    FRAG     MASS         X           Y           Z
   0 C     6.0000    0    12.011   -9.763199    4.605599    0.274394
   1 O     8.0000    0    15.999   -2.061178    4.477209    0.091221
   2 H     1.0000    0     1.008  -10.780209    5.927175   -0.870742
   3 H     1.0000    0     1.008  -10.767467    3.333441    1.484876
   4 H     1.0000    0     1.008   -7.737031    4.556784    0.209683
   5 H     1.0000    0     1.008   -0.251560    4.485003    0.089913

--------------------------------
INTERNAL COORDINATES (ANGSTROEM)
--------------------------------
 C      0   0   0     0.000000000000     0.00000000     0.00000000
 O      1   0   0     4.077452216197     0.00000000     0.00000000
 H      1   2   0     1.070483411058   119.99737217     0.00000000
 H      1   2   3     1.070483382151   119.99879116   180.76362160
 H      1   2   3     1.073059594498     0.63105442    90.44411223
 H      2   1   3     0.957618138973   178.21434155    89.57146753

---------------------------
INTERNAL COORDINATES (A.U.)
---------------------------
 C      0   0   0     0.000000000000     0.00000000     0.00000000
 O      1   0   0     7.705268012763     0.00000000     0.00000000
 H      1   2   0     2.022920477806   119.99737217     0.00000000
 H      1   2   3     2.022920423180   119.99879116   180.76362160
 H      1   2   3     2.027788758978     0.63105442    90.44411223
 H      2   1   3     1.809636023535   178.21434155    89.57146753

---------------------
BASIS SET INFORMATION
---------------------
There are 3 groups of distinct atoms

 Group   1 Type C   : 10s4p1d contracted to 3s2p1d pattern {631/31/1}
 Group   2 Type O   : 10s4p1d contracted to 3s2p1d pattern {631/31/1}
 Group   3 Type H   : 4s contracted to 2s pattern {31}

Atom   0C    basis set group =>   1
Atom   1O    basis set group =>   2
Atom   2H    basis set group =>   3
Atom   3H    basis set group =>   3
Atom   4H    basis set group =>   3
Atom   5H    basis set group =>   3
------------------------------------------------------------------------------
                           ORCA GTO INTEGRAL CALCULATION
------------------------------------------------------------------------------

                         BASIS SET STATISTICS AND STARTUP INFO

 # of primitive gaussian shells          ...   46
 # of primitive gaussian functions       ...   70
 # of contracted shells                  ...   20
 # of contracted basis functions         ...   36
 Highest angular momentum                ...    2
 Maximum contraction depth               ...    6
 Integral package used                   ... LIBINT
 Integral threshhold            Thresh   ...  1.000e-10
 Primitive cut-off              TCut     ...  1.000e-11


------------------------------ INTEGRAL EVALUATION ----------------------------


 * One electron integrals 
 Pre-screening matrix                    ... done
 Shell pair data                         ... done (   0.000 sec)

-------------------------------------------------------------------------------
                                 ORCA SCF
-------------------------------------------------------------------------------

------------
SCF SETTINGS
------------
Hamiltonian:
 Density Functional     Method          .... DFT(GTOs)
 Exchange Functional    Exchange        .... WB97X-D3
 Correlation Functional Correlation     .... WB97X-D3
 Gradients option       PostSCFGGA      .... off
 Hybrid DFT is turned on
   Fraction HF Exchange ScalHFX         ....  0.195728
   Scaling of DF-GGA-X  ScalDFX         ....  0.000000
   Scaling of DF-GGA-C  ScalDFC         ....  1.000000
   Scaling of DF-LDA-C  ScalLDAC        ....  1.000000
   Perturbative correction              ....  0.000000
 Long-range corrected/Screened/Range-Separated Hybrid DFT is turned on
   Amount of maximum screened exact exchange              ....  0.804272
   Range separation parameter mu (erf(mu*r12)/r12)        ....  0.250000


General Settings:
 Integral files         IntName         .... Scan_36
 Hartree-Fock type      HFTyp           .... RHF
 Total Charge           Charge          ....    0
 Multiplicity           Mult            ....    1
 Number of Electrons    NEL             ....   18
 Basis Dimension        Dim             ....   36
 Nuclear Repulsion      ENuc            ....     24.5569673319 Eh

Convergence Acceleration:
 DIIS                   CNVDIIS         .... on
   Start iteration      DIISMaxIt       ....     0
   Startup error        DIISStart       ....  0.200000
   # of expansion vecs  DIISMaxEq       ....     5
   Bias factor          DIISBfac        ....   1.050
   Max. coefficient     DIISMaxC        ....  10.000
 Newton-Raphson         CNVNR           .... off
 SOSCF                  CNVSOSCF        .... off
 Level Shifting         CNVShift        .... off
 Zerner damping         CNVZerner       .... off
 Static damping         CNVDamp         .... off
 Fernandez-Rico         CNVRico         .... off

SCF Procedure:
 Maximum # iterations   MaxIter         ....   999
 SCF integral mode      SCFMode         .... Direct
   Integral package                     .... LIBINT
 Reset frequeny         DirectResetFreq ....    20
 Integral Threshold     Thresh          ....  1.000e-10 Eh
 Primitive CutOff       TCut            ....  1.000e-11 Eh

Convergence Tolerance:
 Convergence Check Mode ConvCheckMode   .... All-Criteria
 Convergence forced     ConvForced      .... 0
 Energy Change          TolE            ....  1.000e-06 Eh
 Max Density Change     TolMaxP         ....  1.000e-05
 RMS Density Change     TolRMSP         ....  1.000e-06
 DIIS Error             TolErr          ....  1.000e-06


Diagonalization of the overlap matrix:
Smallest eigenvalue                        ... 2.996e-02
Time for diagonalization                   ...    0.001 sec
Threshold for overlap eigenvalues          ... 1.000e-08
Number of eigenvalues below threshold      ... 0
Time for construction of square roots      ...    0.005 sec
Total time needed                          ...    0.006 sec

-------------------
DFT GRID GENERATION
-------------------

General Integration Accuracy     IntAcc      ...  4.340
Radial Grid Type                 RadialGrid  ... Gauss-Chebyshev
Angular Grid (max. acc.)         AngularGrid ... Lebedev-110
Angular grid pruning method      GridPruning ... 3 (G Style)
Weight generation scheme         WeightScheme... Becke
Basis function cutoff            BFCut       ...    1.0000e-10
Integration weight cutoff        WCut        ...    1.0000e-14
Grids for H and He will be reduced by one unit

# of grid points (after initial pruning)     ...   6548 (   0.0 sec)
# of grid points (after weights+screening)   ...   6398 (   0.0 sec)
nearest neighbour list constructed           ...    0.0 sec
Grid point re-assignment to atoms done       ...    0.0 sec
Grid point division into batches done        ...    0.0 sec
Reduced shell lists constructed in    0.0 sec

Total number of grid points                  ...     6398
Total number of batches                      ...      104
Average number of points per batch           ...       61
Average number of grid points per atom       ...     1066
Average number of shells per batch           ...    14.16 (70.81%)
Average number of basis functions per batch  ...    24.94 (69.29%)
Average number of large shells per batch     ...    11.31 (79.89%)
Average number of large basis fcns per batch ...    20.17 (80.87%)
Maximum spatial batch extension              ...  19.05, 20.95, 23.74 au
Average spatial batch extension              ...   4.53,  5.77,  5.65 au

Time for grid setup =    0.047 sec

------------------------------
INITIAL GUESS: MODEL POTENTIAL
------------------------------
Loading Hartree-Fock densities                     ... done
Calculating cut-offs                               ... done
Setting up the integral package                    ... done
Initializing the effective Hamiltonian             ... done
Starting the Coulomb interaction                   ... done (   0.0 sec)
Reading the grid                                   ... done
Mapping shells                                     ... done
Starting the XC term evaluation                    ... done (   0.0 sec)
  promolecular density results
     # of electrons  =     18.002935276
     EX              =    -14.307662901
     EC              =     -0.540025053
     EX+EC           =    -14.847687954
Transforming the Hamiltonian                       ... done (   0.0 sec)
Diagonalizing the Hamiltonian                      ... done (   0.0 sec)
Back transforming the eigenvectors                 ... done (   0.0 sec)
Now organizing SCF variables                       ... done
                      ------------------
                      INITIAL GUESS DONE (   0.2 sec)
                      ------------------
--------------
SCF ITERATIONS
--------------
ITER       Energy         Delta-E        Max-DP      RMS-DP      [F,P]   Gradient Norm
               ***  Starting incremental Fock matrix formation  ***
                             ****Resetting KDIIS****
                             ****Turning on KDIIS(Cayley)****
  0   -115.0883640093   0.000000000000 0.05845747  0.00397498  0.2608585   0.175636721
  1   -115.1716875964  -0.083323587087 0.05143307  0.00365040  0.2061520   0.137311661
  2   -115.2224227624  -0.050735165950 0.06147113  0.00531582  0.1579692   0.107589734
  3   -115.2721780221  -0.049755259754 0.09018947  0.00803612  0.0939924   0.066924490
  4   -115.3023870584  -0.030209036331 0.02259814  0.00229202  0.0183852   0.012716225
  5   -115.3034564422  -0.001069383740 0.02935006  0.00322588  0.0097670   0.007448884
  6   -115.3045990453  -0.001142603073 0.01586299  0.00133937  0.0030463   0.002512648
  7   -115.3047666691  -0.000167623853 0.00760881  0.00067332  0.0016452   0.001174449
  8   -115.3048160945  -0.000049425372 0.00950212  0.00080584  0.0010259   0.000723581
  9   -115.3048397190  -0.000023624542 0.00232834  0.00020739  0.0005945   0.000479417
 10   -115.3048473494  -0.000007630389 0.00087085  0.00009295  0.0007795   0.000633401
 11   -115.3048367061   0.000010643270 0.00347037  0.00032204  0.0011113   0.000865765
                          ***Energy convergence achieved***
 12   -115.3048360444   0.000000661791 0.00081798  0.00009395  0.0005327   0.000262008
 13   -115.3048321108   0.000003933519 0.00050271  0.00007278  0.0002568   0.000228843
                          ***Energy convergence achieved***
 14   -115.3048320812   0.000000029675 0.00135492  0.00011758  0.0001825   0.000141970
 15   -115.3048333224  -0.000001241267 0.00045183  0.00004022  0.0001614   0.000130477
                          ***Energy convergence achieved***
 16   -115.3048339005  -0.000000578033 0.00033000  0.00003539  0.0002101   0.000117056
 17   -115.3048335650   0.000000335489 0.00018422  0.00001654  0.0001931   0.000142877
 18   -115.3048337763  -0.000000211292 0.00024709  0.00003710  0.0002147   0.000142456
 19   -115.3048337317   0.000000044583 0.00053102  0.00004054  0.0001493   0.000098524
               *** Restarting incremental Fock matrix formation ***
                             ****Resetting KDIIS****
 20   -115.3048340792  -0.000000347533 0.00010392  0.00000790  0.0001413   0.000098991

            ***Energy convergence in two consecutive cycles with***
                    ***'reasonable' density convergence***
                       *** signaling convergence ***

                    *** KDIIS BlockDiag ( 0.000 sec) ***

               *****************************************************
               *                     SUCCESS                       *
               *           SCF CONVERGED AFTER  21 CYCLES          *
               *****************************************************

Setting up the final grid:

General Integration Accuracy     IntAcc      ...  4.670
Radial Grid Type                 RadialGrid  ... Gauss-Chebyshev
Angular Grid (max. acc.)         AngularGrid ... Lebedev-302
Angular grid pruning method      GridPruning ... 3 (G Style)
Weight generation scheme         WeightScheme... Becke
Basis function cutoff            BFCut       ...    1.0000e-10
Integration weight cutoff        WCut        ...    1.0000e-14
Grids for H and He will be reduced by one unit

# of grid points (after initial pruning)     ...  26000 (   0.0 sec)
# of grid points (after weights+screening)   ...  25473 (   0.0 sec)
nearest neighbour list constructed           ...    0.0 sec
Grid point re-assignment to atoms done       ...    0.0 sec
Grid point division into batches done        ...    0.1 sec
Reduced shell lists constructed in    0.2 sec

Total number of grid points                  ...    25473
Total number of batches                      ...      402
Average number of points per batch           ...       63
Average number of grid points per atom       ...     4246
Average number of shells per batch           ...    12.76 (63.78%)
Average number of basis functions per batch  ...    22.34 (62.07%)
Average number of large shells per batch     ...    10.07 (78.93%)
Average number of large basis fcns per batch ...    17.83 (79.80%)
Maximum spatial batch extension              ...  20.43, 20.64, 20.64 au
Average spatial batch extension              ...   2.85,  3.38,  3.33 au

Final grid set up in    0.2 sec
Final integration                            ... done (   0.2 sec)
Change in XC energy                          ...    -0.000251226
Integrated number of electrons               ...    18.000015659
Previous integrated no of electrons          ...    17.992665013

----------------
TOTAL SCF ENERGY
----------------

Total Energy       :         -115.30508540 Eh           -3137.61089 eV

Components:
Nuclear Repulsion  :           24.55696733 Eh             668.22905 eV
Electronic Energy  :         -139.86205273 Eh           -3805.83994 eV
One Electron Energy:         -206.34778448 Eh           -5615.00868 eV
Two Electron Energy:           66.48573175 Eh            1809.16874 eV

Virial components:
Potential Energy   :         -230.10615273 Eh           -6261.50674 eV
Kinetic Energy     :          114.80106733 Eh            3123.89586 eV
Virial Ratio       :            2.00439036


DFT components:
N(Alpha)           :        9.000007829468 electrons
N(Beta)            :        9.000007829468 electrons
N(Total)           :       18.000015658935 electrons
E(XC)              :      -10.591437552274 Eh       

---------------
SCF CONVERGENCE
---------------

  Last Energy change         ...   -9.4093e-08  Tolerance :   1.0000e-06
  Last MAX-Density change    ...    6.1980e-05  Tolerance :   1.0000e-05
  Last RMS-Density change    ...    5.8906e-06  Tolerance :   1.0000e-06
  Last DIIS Error            ...    1.4217e-04  Tolerance :   1.0000e-06

             **** THE GBW FILE WAS UPDATED (Scan_36.gbw) ****
             **** DENSITY FILE WAS UPDATED (Scan_36.scfp.tmp) ****
             **** ENERGY FILE WAS UPDATED (Scan_36.en.tmp) ****
----------------
ORBITAL ENERGIES
----------------

  NO   OCC          E(Eh)            E(eV) 
   0   2.0000     -18.902010      -514.3498 
   1   2.0000     -10.597198      -288.3644 
   2   2.0000      -1.023916       -27.8622 
   3   2.0000      -0.756576       -20.5875 
   4   2.0000      -0.741351       -20.1732 
   5   2.0000      -0.735749       -20.0207 
   6   2.0000      -0.232303        -6.3213 
   7   2.0000      -0.074403        -2.0246 
   8   2.0000      -0.074374        -2.0238 
   9   0.0000      -0.241766        -6.5788 
  10   0.0000       0.069114         1.8807 
  11   0.0000       0.112640         3.0651 
  12   0.0000       0.171595         4.6693 
  13   0.0000       0.404244        11.0000 
  14   0.0000       0.455866        12.4047 
  15   0.0000       0.468119        12.7382 
  16   0.0000       0.480154        13.0657 
  17   0.0000       0.610149        16.6030 
  18   0.0000       0.821298        22.3487 
  19   0.0000       0.840188        22.8627 
  20   0.0000       0.898528        24.4502 
  21   0.0000       1.204893        32.7868 
  22   0.0000       1.276717        34.7412 
  23   0.0000       1.276793        34.7433 
  24   0.0000       1.405379        38.2423 
  25   0.0000       1.497018        40.7359 
  26   0.0000       1.497970        40.7618 
  27   0.0000       1.666784        45.3555 
  28   0.0000       1.901874        51.7526 
  29   0.0000       2.056633        55.9638 
  30   0.0000       2.059950        56.0541 
  31   0.0000       2.164561        58.9007 
  32   0.0000       2.164594        58.9016 
  33   0.0000       2.231538        60.7232 
  34   0.0000       2.231869        60.7322 
  35   0.0000       2.871898        78.1483 

                    ********************************
                    * MULLIKEN POPULATION ANALYSIS *
                    ********************************

-----------------------
MULLIKEN ATOMIC CHARGES
-----------------------
   0 C :   -0.104715
   1 O :   -1.217525
   2 H :    0.325853
   3 H :    0.325822
   4 H :    0.410689
   5 H :    0.259878
Sum of atomic charges:   -0.0000000

--------------------------------
MULLIKEN REDUCED ORBITAL CHARGES
--------------------------------
  0 C s       :     3.548608  s :     3.548608
      pz      :     0.546138  p :     2.533364
      px      :     1.326670
      py      :     0.660555
      dz2     :     0.001617  d :     0.022743
      dxz     :     0.004684
      dyz     :     0.005439
      dx2y2   :     0.005318
      dxy     :     0.005686
  1 O s       :     3.911990  s :     3.911990
      pz      :     1.998421  p :     5.292700
      px      :     1.295863
      py      :     1.998416
      dz2     :     0.002596  d :     0.012835
      dxz     :     0.001225
      dyz     :     0.000000
      dx2y2   :     0.007787
      dxy     :     0.001227
  2 H s       :     0.674147  s :     0.674147
  3 H s       :     0.674178  s :     0.674178
  4 H s       :     0.589311  s :     0.589311
  5 H s       :     0.740122  s :     0.740122


                     *******************************
                     * LOEWDIN POPULATION ANALYSIS *
                     *******************************

----------------------
LOEWDIN ATOMIC CHARGES
----------------------
   0 C :    0.250807
   1 O :   -1.171554
   2 H :    0.224796
   3 H :    0.224713
   4 H :    0.268765
   5 H :    0.202472

-------------------------------
LOEWDIN REDUCED ORBITAL CHARGES
-------------------------------
  0 C s       :     3.199648  s :     3.199648
      pz      :     0.555185  p :     2.516583
      px      :     1.289854
      py      :     0.671543
      dz2     :     0.002245  d :     0.032962
      dxz     :     0.007249
      dyz     :     0.006912
      dx2y2   :     0.007764
      dxy     :     0.008793
  1 O s       :     3.773405  s :     3.773405
      pz      :     1.998450  p :     5.379707
      px      :     1.382814
      py      :     1.998443
      dz2     :     0.003998  d :     0.018442
      dxz     :     0.001225
      dyz     :     0.000000
      dx2y2   :     0.011992
      dxy     :     0.001227
  2 H s       :     0.775204  s :     0.775204
  3 H s       :     0.775287  s :     0.775287
  4 H s       :     0.731235  s :     0.731235
  5 H s       :     0.797528  s :     0.797528


                      *****************************
                      * MAYER POPULATION ANALYSIS *
                      *****************************

  NA   - Mulliken gross atomic population
  ZA   - Total nuclear charge
  QA   - Mulliken gross atomic charge
  VA   - Mayer's total valence
  BVA  - Mayer's bonded valence
  FA   - Mayer's free valence

  ATOM       NA         ZA         QA         VA         BVA        FA
  0 C      6.1047     6.0000    -0.1047     2.4961     2.4961    -0.0000
  1 O      9.2175     8.0000    -1.2175     0.9422     0.9422     0.0000
  2 H      0.6741     1.0000     0.3259     0.8675     0.8675    -0.0000
  3 H      0.6742     1.0000     0.3258     0.8675     0.8675    -0.0000
  4 H      0.5893     1.0000     0.4107     0.8509     0.8509    -0.0000
  5 H      0.7401     1.0000     0.2599     0.8859     0.8859     0.0000

  Mayer bond orders larger than 0.1
B(  0-C ,  2-H ) :   0.8718 B(  0-C ,  3-H ) :   0.8718 B(  0-C ,  4-H ) :   0.7629 
B(  1-O ,  5-H ) :   0.8725 

-------
TIMINGS
-------

Total SCF time: 0 days 0 hours 0 min 6 sec 

Total time                  ....       6.585 sec
Sum of individual times     ....       6.317 sec  ( 95.9%)

Fock matrix formation       ....       5.898 sec  ( 89.6%)
  XC integration            ....       1.823 sec  ( 30.9% of F)
    Basis function eval.    ....       0.581 sec  ( 31.9% of XC)
    Density eval.           ....       0.083 sec  (  4.5% of XC)
    XC-Functional eval.     ....       0.527 sec  ( 28.9% of XC)
    XC-Potential eval.      ....       0.055 sec  (  3.0% of XC)
Diagonalization             ....       0.009 sec  (  0.1%)
Density matrix formation    ....       0.000 sec  (  0.0%)
Population analysis         ....       0.012 sec  (  0.2%)
Initial guess               ....       0.136 sec  (  2.1%)
Orbital Transformation      ....       0.000 sec  (  0.0%)
Orbital Orthonormalization  ....       0.000 sec  (  0.0%)
DIIS solution               ....       0.000 sec  (  0.0%)
Grid generation             ....       0.262 sec  (  4.0%)


-------------------------------------------------------------------------------
                          DFT DISPERSION CORRECTION                            
                                                                               
                              DFTD3 V3.1  Rev 1                                
                              USING zero damping                               
-------------------------------------------------------------------------------
The omegaB97X-D3 functional is recognized. Fit by Chai et al.
Active option DFTDOPT                   ...         3   

molecular C6(AA) [au] = 243.649550 


            DFT-D V3
 parameters
 s6 scaling factor         :     1.0000 
 rs6 scaling factor        :     1.2810 
 s8 scaling factor         :     1.0000 
 rs8 scaling factor        :     1.0940 
 Damping factor alpha6     :    14.0000 
 Damping factor alpha8     :    16.0000 
 ad hoc parameters k1-k3   :    16.0000     1.3333    -4.0000 

 Edisp/kcal,au: -0.201858594555  -0.000321682112 
 E6   /kcal   :  -0.115600565 
 E8   /kcal   :  -0.086258030 
 % E8         :  42.731908406 

-------------------------   ----------------
Dispersion correction           -0.000321682
-------------------------   ----------------


-------------------------   --------------------
FINAL SINGLE POINT ENERGY      -115.305407081460
-------------------------   --------------------


                            ***************************************
                            *     ORCA property calculations      *
                            ***************************************

                                    ---------------------
                                    Active property flags
                                    ---------------------
   (+) Dipole Moment


------------------------------------------------------------------------------
                       ORCA ELECTRIC PROPERTIES CALCULATION
------------------------------------------------------------------------------

Dipole Moment Calculation                       ... on
Quadrupole Moment Calculation                   ... off
Polarizability Calculation                      ... off
GBWName                                         ... Scan_36.gbw
Electron density file                           ... Scan_36.scfp.tmp

-------------
DIPOLE MOMENT
-------------
                                X             Y             Z
Electronic contribution:     -3.34934       0.04836       0.07117
Nuclear contribution   :     -3.47910       0.07476       0.10117
                        -----------------------------------------
Total Dipole Moment    :     -6.82844       0.12311       0.17233
                        -----------------------------------------
Magnitude (a.u.)       :      6.83172
Magnitude (Debye)      :     17.36486


Timings for individual modules:

Sum of individual times         ...        6.934 sec (=   0.116 min)
GTO integral calculation        ...        0.311 sec (=   0.005 min)   4.5 %
SCF iterations                  ...        6.623 sec (=   0.110 min)  95.5 %
                             ****ORCA TERMINATED NORMALLY****
TOTAL RUN TIME: 0 days 0 hours 0 minutes 7 seconds 266 msec
