
                                 *****************
                                 * O   R   C   A *
                                 *****************

           --- An Ab Initio, DFT and Semiempirical electronic structure package ---

                  #######################################################
                  #                        -***-                        #
                  #  Department of molecular theory and spectroscopy    #
                  #              Directorship: Frank Neese              #
                  # Max Planck Institute for Chemical Energy Conversion #
                  #                  D-45470 Muelheim/Ruhr              #
                  #                       Germany                       #
                  #                                                     #
                  #                  All rights reserved                #
                  #                        -***-                        #
                  #######################################################


                         Program Version 4.0.0.2 - RELEASE -


 With contributions from (in alphabetic order):
   Daniel Aravena         : Magnetic Properties
   Michael Atanasov       : Ab Initio Ligand Field Theory
   Ute Becker             : Parallelization
   Martin Brehm           : Molecular dynamics
   Dmytro Bykov           : SCF Hessian
   Vijay G. Chilkuri      : MRCI spin determinant printing
   Dipayan Datta          : RHF DLPNO-CCSD density
   Achintya Kumar Dutta   : EOM-CC, STEOM-CC
   Dmitry Ganyushin       : Spin-Orbit,Spin-Spin,Magnetic field MRCI
   Yang Guo               : DLPNO-NEVPT2, CIM, IAO-localization
   Andreas Hansen         : Spin unrestricted coupled pair/coupled cluster methods
   Lee Huntington         : MR-EOM, pCC
   Robert Izsak           : Overlap fitted RIJCOSX, COSX-SCS-MP3, EOM
   Christian Kollmar      : KDIIS, OOCD, Brueckner-CCSD(T), CCSD density
   Simone Kossmann        : Meta GGA functionals, TD-DFT gradient, OOMP2, MP2 Hessian
   Martin Krupicka        : AUTO-CI
   Dagmar Lenk            : GEPOL surface
   Dimitrios Liakos       : Extrapolation schemes; parallel MDCI
   Dimitrios Manganas     : ROCIS; embedding schemes
   Dimitrios Pantazis     : SARC Basis sets
   Taras Petrenko         : DFT Hessian,TD-DFT gradient, ASA, ECA, R-Raman, ABS, FL, XAS/XES, NRVS
   Peter Pinski           : DLPNO-MP2
   Christoph Reimann      : Effective Core Potentials
   Marius Retegan         : Local ZFS, SOC
   Christoph Riplinger    : Optimizer, TS searches, QM/MM, DLPNO-CCSD(T), (RO)-DLPNO pert. Triples
   Tobias Risthaus        : Range-separated hybrids, TD-DFT gradient, RPA, STAB
   Michael Roemelt        : Restricted open shell CIS
   Masaaki Saitow         : Open-shell DLPNO
   Barbara Sandhoefer     : DKH picture change effects
   Kantharuban Sivalingam : CASSCF convergence, NEVPT2, FIC-MRCI
   Georgi Stoychev        : AutoAux
   Boris Wezisla          : Elementary symmetry handling
   Frank Wennmohs         : Technical directorship


 We gratefully acknowledge several colleagues who have allowed us to
 interface, adapt or use parts of their codes:
   Stefan Grimme, W. Hujo, H. Kruse,             : VdW corrections, initial TS optimization,
                  C. Bannwarth                     DFT functionals, gCP, sTDA/sTD-DF
   Ed Valeev                                     : LibInt (2-el integral package), F12 methods
   Garnet Chan, S. Sharma, J. Yang, R. Olivares  : DMRG
   Ulf Ekstrom                                   : XCFun DFT Library
   Mihaly Kallay                                 : mrcc  (arbitrary order and MRCC methods)
   Jiri Pittner, Ondrej Demel                    : Mk-CCSD
   Frank Weinhold                                : gennbo (NPA and NBO analysis)
   Christopher J. Cramer and Donald G. Truhlar   : smd solvation model


 Your calculation uses the libint2 library for the computation of 2-el integrals
 For citations please refer to: http://libint.valeyev.net

 This ORCA versions uses:
   CBLAS   interface :  Fast vector & matrix operations
   LAPACKE interface :  Fast linear algebra routines
   SCALAPACK package :  Parallel linear algebra routines


Your calculation utilizes the atom-pairwise dispersion correction
with the zero-damping scheme (D30)
Cite in your paper:
S.Grimme, J.Antony, S.Ehrlich and H.Krieg, J.Chem.Phys., 132, (2010), 154104 
   

XCFun DFT library Copyright 2009-2010 Ulf Ekstrom and contributors.
See http://admol.org/xcfun for more information. This is free soft-
ware; see the source code for copying conditions. There is ABSOLUTELY
NO WARRANTY; not even for MERCHANTABILITY or FITNESS FOR A PARTICULAR
PURPOSE. For details see the documentation. Scientific users of this 
library should cite U. Ekstrom, L. Visscher, R. Bast, A. J. Thorvald-
sen and K. Ruud; J.Chem.Theor.Comp. 2010, DOI: 10.1021/ct100117s
XCFun Version 0.99 
Your calculation utilizes the basis: 6-31G(d)
   H-He, Li-Ne : W. J. Hehre, R. Ditchfield and J.A. Pople, J. Chem. Phys. 56, 2257 (1972).
                 Note: He and Ne are unpublished basis sets taken from the Gaussian program.
                 Note: Li and B from J. D. Dill and J. A. Pople, J. Chem. Phys. 62, 2921 (1975).
   Na - Ar     : M. M. Francl, W. J. Pietro, W. J. Hehre, J. S. Binkley, M. S. Gordon, 
                 D. J. DeFrees and J. A. Pople, J. Chem. Phys. 77, 3654 (1982).
   K - Zn      : V. A. Rassolov, J. A. Pople, M. A. Ratner, and T. L. Windus, J. Chem. Phys. 109, 1223 (1998).

================================================================================
                                        WARNINGS
                       Please study these warnings very carefully!
================================================================================

Warning: TCutStore was < 0. Adjusted to Thresh (uncritical)

INFO   : the flag for use of LIBINT has been found!

================================================================================
                                       INPUT FILE
================================================================================
NAME = initial37.inp
|  1> ! WB97X-D3 6-31G(d) VerySlowConv
|  2> ! KDIIS NOSOSCF
|  3> %base "Scan_37"
|  4> 
|  5> %scf
|  6> maxiter 999
|  7> end
|  8> 
|  9> * xyz 0 1
| 10> C         -5.200594657600    2.437730209993    0.145995864583
| 11> O         -1.022424167155    2.369185168752    0.047842911565
| 12> H         -5.738737100573    3.136582391202   -0.460511774130
| 13> H         -5.731992685139    1.764054859708    0.786012100016
| 14> H         -4.128640979392    2.412749142352    0.112689161202
| 15> H         -0.064720410142    2.371328227994    0.044971736765
| 16> **                         ****END OF INPUT****
================================================================================

                       ****************************
                       * Single Point Calculation *
                       ****************************

---------------------------------
CARTESIAN COORDINATES (ANGSTROEM)
---------------------------------
  C     -5.200595    2.437730    0.145996
  O     -1.022424    2.369185    0.047843
  H     -5.738737    3.136582   -0.460512
  H     -5.731993    1.764055    0.786012
  H     -4.128641    2.412749    0.112689
  H     -0.064720    2.371328    0.044972

----------------------------
CARTESIAN COORDINATES (A.U.)
----------------------------
  NO LB      ZA    FRAG     MASS         X           Y           Z
   0 C     6.0000    0    12.011   -9.827700    4.606642    0.275892
   1 O     8.0000    0    15.999   -1.932102    4.477111    0.090410
   2 H     1.0000    0     1.008  -10.844641    5.927282   -0.870241
   3 H     1.0000    0     1.008  -10.831896    3.333581    1.485348
   4 H     1.0000    0     1.008   -7.802001    4.559435    0.212952
   5 H     1.0000    0     1.008   -0.122304    4.481161    0.084984

--------------------------------
INTERNAL COORDINATES (ANGSTROEM)
--------------------------------
 C      0   0   0     0.000000000000     0.00000000     0.00000000
 O      1   0   0     4.179885294131     0.00000000     0.00000000
 H      1   2   0     1.070440645681   119.99502675     0.00000000
 H      1   2   3     1.070440620900   119.99636897   180.70031008
 H      1   2   3     1.072761892712     0.58653981    90.41371007
 H      2   1   3     0.957710458617   178.41306766    89.60270109

---------------------------
INTERNAL COORDINATES (A.U.)
---------------------------
 C      0   0   0     0.000000000000     0.00000000     0.00000000
 O      1   0   0     7.898838477112     0.00000000     0.00000000
 H      1   2   0     2.022839662956   119.99502675     0.00000000
 H      1   2   3     2.022839616125   119.99636897   180.70031008
 H      1   2   3     2.027226184132     0.58653981    90.41371007
 H      2   1   3     1.809810482378   178.41306766    89.60270109

---------------------
BASIS SET INFORMATION
---------------------
There are 3 groups of distinct atoms

 Group   1 Type C   : 10s4p1d contracted to 3s2p1d pattern {631/31/1}
 Group   2 Type O   : 10s4p1d contracted to 3s2p1d pattern {631/31/1}
 Group   3 Type H   : 4s contracted to 2s pattern {31}

Atom   0C    basis set group =>   1
Atom   1O    basis set group =>   2
Atom   2H    basis set group =>   3
Atom   3H    basis set group =>   3
Atom   4H    basis set group =>   3
Atom   5H    basis set group =>   3
------------------------------------------------------------------------------
                           ORCA GTO INTEGRAL CALCULATION
------------------------------------------------------------------------------

                         BASIS SET STATISTICS AND STARTUP INFO

 # of primitive gaussian shells          ...   46
 # of primitive gaussian functions       ...   70
 # of contracted shells                  ...   20
 # of contracted basis functions         ...   36
 Highest angular momentum                ...    2
 Maximum contraction depth               ...    6
 Integral package used                   ... LIBINT
 Integral threshhold            Thresh   ...  1.000e-10
 Primitive cut-off              TCut     ...  1.000e-11


------------------------------ INTEGRAL EVALUATION ----------------------------


 * One electron integrals 
 Pre-screening matrix                    ... done
 Shell pair data                         ... done (   0.000 sec)

-------------------------------------------------------------------------------
                                 ORCA SCF
-------------------------------------------------------------------------------

------------
SCF SETTINGS
------------
Hamiltonian:
 Density Functional     Method          .... DFT(GTOs)
 Exchange Functional    Exchange        .... WB97X-D3
 Correlation Functional Correlation     .... WB97X-D3
 Gradients option       PostSCFGGA      .... off
 Hybrid DFT is turned on
   Fraction HF Exchange ScalHFX         ....  0.195728
   Scaling of DF-GGA-X  ScalDFX         ....  0.000000
   Scaling of DF-GGA-C  ScalDFC         ....  1.000000
   Scaling of DF-LDA-C  ScalLDAC        ....  1.000000
   Perturbative correction              ....  0.000000
 Long-range corrected/Screened/Range-Separated Hybrid DFT is turned on
   Amount of maximum screened exact exchange              ....  0.804272
   Range separation parameter mu (erf(mu*r12)/r12)        ....  0.250000


General Settings:
 Integral files         IntName         .... Scan_37
 Hartree-Fock type      HFTyp           .... RHF
 Total Charge           Charge          ....    0
 Multiplicity           Mult            ....    1
 Number of Electrons    NEL             ....   18
 Basis Dimension        Dim             ....   36
 Nuclear Repulsion      ENuc            ....     24.3015831636 Eh

Convergence Acceleration:
 DIIS                   CNVDIIS         .... on
   Start iteration      DIISMaxIt       ....     0
   Startup error        DIISStart       ....  0.200000
   # of expansion vecs  DIISMaxEq       ....     5
   Bias factor          DIISBfac        ....   1.050
   Max. coefficient     DIISMaxC        ....  10.000
 Newton-Raphson         CNVNR           .... off
 SOSCF                  CNVSOSCF        .... off
 Level Shifting         CNVShift        .... off
 Zerner damping         CNVZerner       .... off
 Static damping         CNVDamp         .... off
 Fernandez-Rico         CNVRico         .... off

SCF Procedure:
 Maximum # iterations   MaxIter         ....   999
 SCF integral mode      SCFMode         .... Direct
   Integral package                     .... LIBINT
 Reset frequeny         DirectResetFreq ....    20
 Integral Threshold     Thresh          ....  1.000e-10 Eh
 Primitive CutOff       TCut            ....  1.000e-11 Eh

Convergence Tolerance:
 Convergence Check Mode ConvCheckMode   .... All-Criteria
 Convergence forced     ConvForced      .... 0
 Energy Change          TolE            ....  1.000e-06 Eh
 Max Density Change     TolMaxP         ....  1.000e-05
 RMS Density Change     TolRMSP         ....  1.000e-06
 DIIS Error             TolErr          ....  1.000e-06


Diagonalization of the overlap matrix:
Smallest eigenvalue                        ... 3.017e-02
Time for diagonalization                   ...    0.001 sec
Threshold for overlap eigenvalues          ... 1.000e-08
Number of eigenvalues below threshold      ... 0
Time for construction of square roots      ...    0.005 sec
Total time needed                          ...    0.005 sec

-------------------
DFT GRID GENERATION
-------------------

General Integration Accuracy     IntAcc      ...  4.340
Radial Grid Type                 RadialGrid  ... Gauss-Chebyshev
Angular Grid (max. acc.)         AngularGrid ... Lebedev-110
Angular grid pruning method      GridPruning ... 3 (G Style)
Weight generation scheme         WeightScheme... Becke
Basis function cutoff            BFCut       ...    1.0000e-10
Integration weight cutoff        WCut        ...    1.0000e-14
Grids for H and He will be reduced by one unit

# of grid points (after initial pruning)     ...   6548 (   0.0 sec)
# of grid points (after weights+screening)   ...   6399 (   0.0 sec)
nearest neighbour list constructed           ...    0.0 sec
Grid point re-assignment to atoms done       ...    0.0 sec
Grid point division into batches done        ...    0.0 sec
Reduced shell lists constructed in    0.0 sec

Total number of grid points                  ...     6399
Total number of batches                      ...      104
Average number of points per batch           ...       61
Average number of grid points per atom       ...     1066
Average number of shells per batch           ...    14.02 (70.10%)
Average number of basis functions per batch  ...    24.65 (68.47%)
Average number of large shells per batch     ...    11.14 (79.48%)
Average number of large basis fcns per batch ...    19.79 (80.29%)
Maximum spatial batch extension              ...  19.05, 20.95, 23.74 au
Average spatial batch extension              ...   4.51,  5.77,  5.70 au

Time for grid setup =    0.045 sec

------------------------------
INITIAL GUESS: MODEL POTENTIAL
------------------------------
Loading Hartree-Fock densities                     ... done
Calculating cut-offs                               ... done
Setting up the integral package                    ... done
Initializing the effective Hamiltonian             ... done
Starting the Coulomb interaction                   ... done (   0.0 sec)
Reading the grid                                   ... done
Mapping shells                                     ... done
Starting the XC term evaluation                    ... done (   0.0 sec)
  promolecular density results
     # of electrons  =     18.002907283
     EX              =    -14.307569451
     EC              =     -0.539925798
     EX+EC           =    -14.847495250
Transforming the Hamiltonian                       ... done (   0.0 sec)
Diagonalizing the Hamiltonian                      ... done (   0.0 sec)
Back transforming the eigenvectors                 ... done (   0.0 sec)
Now organizing SCF variables                       ... done
                      ------------------
                      INITIAL GUESS DONE (   0.2 sec)
                      ------------------
--------------
SCF ITERATIONS
--------------
ITER       Energy         Delta-E        Max-DP      RMS-DP      [F,P]   Gradient Norm
               ***  Starting incremental Fock matrix formation  ***
                             ****Resetting KDIIS****
                             ****Turning on KDIIS(Cayley)****
  0   -115.0841075980   0.000000000000 0.05889319  0.00394421  0.2608291   0.175681541
  1   -115.1672177032  -0.083110105190 0.05219475  0.00361197  0.2062524   0.137427094
  2   -115.2181586221  -0.050940918897 0.06177337  0.00514283  0.1577686   0.107460905
  3   -115.2673459401  -0.049187318045 0.09042082  0.00787632  0.0941507   0.066964913
  4   -115.2979422266  -0.030596286501 0.02639018  0.00249398  0.0178425   0.012099255
  5   -115.2990095965  -0.001067369876 0.02541315  0.00314769  0.0078317   0.006831211
  6   -115.2994771014  -0.000467504938 0.01661168  0.00127998  0.0066016   0.005117058
  7   -115.2997149906  -0.000237889201 0.00940572  0.00109228  0.0057912   0.004224216
  8   -115.3000888525  -0.000373861822 0.02722324  0.00231782  0.0055494   0.002453597
  9   -115.3002529510  -0.000164098503 0.03210164  0.00293478  0.0065900   0.002890466
 10   -115.3002069127   0.000046038278 0.01479873  0.00134065  0.0079516   0.004123924
 11   -115.2999990087   0.000207903945 0.00791552  0.00064331  0.0072854   0.005441079
 12   -115.3000993917  -0.000100382936 0.02144524  0.00206630  0.0045728   0.002099026
 13   -115.2999692644   0.000130127234 0.00759055  0.00083313  0.0009892   0.000877728
 14   -115.2999897650  -0.000020500531 0.00333498  0.00034031  0.0006513   0.000528910
 15   -115.3000092086  -0.000019443591 0.00178375  0.00023155  0.0009588   0.000508005
 16   -115.2999898768   0.000019331722 0.00304176  0.00035999  0.0005744   0.000460918
                          ***Energy convergence achieved***
 17   -115.2999889187   0.000000958181 0.00154626  0.00018991  0.0009239   0.000686752
 18   -115.2999947541  -0.000005835420 0.00093631  0.00008529  0.0005076   0.000386921
 19   -115.2999977475  -0.000002993430 0.00075251  0.00007697  0.0006217   0.000357337
               *** Restarting incremental Fock matrix formation ***
                             ****Resetting KDIIS****
 20   -115.2999964257   0.000001321840 0.00025864  0.00002350  0.0004834   0.000301661
                          ***Energy convergence achieved***
 21   -115.2999973790  -0.000000953291 0.00015480  0.00002011  0.0005413   0.000300368
 22   -115.2999972653   0.000000113617 0.00074365  0.00006945  0.0004792   0.000264584
 23   -115.2999974297  -0.000000164404 0.00698432  0.00056373  0.0003629   0.000229451
 24   -115.3000063568  -0.000008927098 0.00032775  0.00002480  0.0002731   0.000179651
                          ***Energy convergence achieved***
 25   -115.3000056958   0.000000661072 0.00052320  0.00005242  0.0002729   0.000178337
 26   -115.3000046104   0.000001085344 0.00340844  0.00025355  0.0002712   0.000161054
 27   -115.3000070089  -0.000002398499 0.00284505  0.00019728  0.0002319   0.000174101
 28   -115.3000089054  -0.000001896433 0.00826134  0.00057160  0.0002677   0.000212916
 29   -115.3000137107  -0.000004805385 0.00244930  0.00017486  0.0001848   0.000100025
                          ***Energy convergence achieved***
 30   -115.3000128018   0.000000908972 0.00467977  0.00032626  0.0002354   0.000115847
 31   -115.3000145078  -0.000001706010 0.00311026  0.00022392  0.0001300   0.000083899
 32   -115.3000161178  -0.000001610052 0.00162970  0.00011271  0.0001366   0.000091507
                          ***Energy convergence achieved***
 33   -115.3000153996   0.000000718227 0.00081884  0.00005692  0.0001160   0.000086447
 34   -115.3000150972   0.000000302377 0.00013448  0.00001509  0.0001200   0.000081866
 35   -115.3000151092  -0.000000011967 0.00192712  0.00013434  0.0001200   0.000081767
 36   -115.3000143299   0.000000779318 0.00029912  0.00002598  0.0001324   0.000082586
 37   -115.3000146196  -0.000000289687 0.00223514  0.00015568  0.0001310   0.000087776
 38   -115.3000151748  -0.000000555194 0.01493629  0.00102834  0.0001133   0.000101715
 39   -115.3000179139  -0.000002739120 0.00668262  0.00045952  0.0001511   0.000072762
               *** Restarting incremental Fock matrix formation ***
                             ****Resetting KDIIS****
                          ***Energy convergence achieved***
 40   -115.3000180553  -0.000000141412 0.00005250  0.00000525  0.0002537   0.000113947
 41   -115.3000182260  -0.000000170743 0.00010781  0.00000850  0.0002841   0.000121323
 42   -115.3000179702   0.000000255851 0.00018070  0.00001372  0.0002208   0.000099179
 43   -115.3000176909   0.000000279264 0.00046064  0.00005149  0.0001330   0.000077265
 44   -115.3000171193   0.000000571586 0.00022645  0.00001743  0.0000475   0.000033929
 45   -115.3000171548  -0.000000035444 0.00041702  0.00002962  0.0000453   0.000022360
 46   -115.3000172154  -0.000000060579 0.00252373  0.00017706  0.0000415   0.000020781
 47   -115.3000174678  -0.000000252415 0.00045716  0.00003179  0.0000368   0.000028532
 48   -115.3000175034  -0.000000035641 0.00026748  0.00001844  0.0000250   0.000021246

            ***Energy convergence in two consecutive cycles with***
                    ***'reasonable' density convergence***
                       *** signaling convergence ***

                    *** KDIIS BlockDiag ( 0.000 sec) ***

               *****************************************************
               *                     SUCCESS                       *
               *           SCF CONVERGED AFTER  49 CYCLES          *
               *****************************************************

Setting up the final grid:

General Integration Accuracy     IntAcc      ...  4.670
Radial Grid Type                 RadialGrid  ... Gauss-Chebyshev
Angular Grid (max. acc.)         AngularGrid ... Lebedev-302
Angular grid pruning method      GridPruning ... 3 (G Style)
Weight generation scheme         WeightScheme... Becke
Basis function cutoff            BFCut       ...    1.0000e-10
Integration weight cutoff        WCut        ...    1.0000e-14
Grids for H and He will be reduced by one unit

# of grid points (after initial pruning)     ...  26000 (   0.0 sec)
# of grid points (after weights+screening)   ...  25481 (   0.0 sec)
nearest neighbour list constructed           ...    0.0 sec
Grid point re-assignment to atoms done       ...    0.0 sec
Grid point division into batches done        ...    0.1 sec
Reduced shell lists constructed in    0.2 sec

Total number of grid points                  ...    25481
Total number of batches                      ...      402
Average number of points per batch           ...       63
Average number of grid points per atom       ...     4247
Average number of shells per batch           ...    12.70 (63.49%)
Average number of basis functions per batch  ...    22.27 (61.85%)
Average number of large shells per batch     ...     9.99 (78.66%)
Average number of large basis fcns per batch ...    17.68 (79.40%)
Maximum spatial batch extension              ...  20.63, 20.64, 20.64 au
Average spatial batch extension              ...   2.89,  3.39,  3.35 au

Final grid set up in    0.2 sec
Final integration                            ... done (   0.2 sec)
Change in XC energy                          ...    -0.000209864
Integrated number of electrons               ...    18.000013577
Previous integrated no of electrons          ...    17.993290061

----------------
TOTAL SCF ENERGY
----------------

Total Energy       :         -115.30022739 Eh           -3137.47869 eV

Components:
Nuclear Repulsion  :           24.30158316 Eh             661.27970 eV
Electronic Energy  :         -139.60181055 Eh           -3798.75839 eV
One Electron Energy:         -205.84184093 Eh           -5601.24125 eV
Two Electron Energy:           66.24003038 Eh            1802.48286 eV

Virial components:
Potential Energy   :         -230.10655208 Eh           -6261.51761 eV
Kinetic Energy     :          114.80632470 Eh            3124.03892 eV
Virial Ratio       :            2.00430205


DFT components:
N(Alpha)           :        9.000006788547 electrons
N(Beta)            :        9.000006788547 electrons
N(Total)           :       18.000013577093 electrons
E(XC)              :      -10.592982148376 Eh       

---------------
SCF CONVERGENCE
---------------

  Last Energy change         ...   -1.8257e-08  Tolerance :   1.0000e-06
  Last MAX-Density change    ...    5.5679e-05  Tolerance :   1.0000e-05
  Last RMS-Density change    ...    5.2530e-06  Tolerance :   1.0000e-06
  Last DIIS Error            ...    2.8012e-05  Tolerance :   1.0000e-06

             **** THE GBW FILE WAS UPDATED (Scan_37.gbw) ****
             **** DENSITY FILE WAS UPDATED (Scan_37.scfp.tmp) ****
             **** ENERGY FILE WAS UPDATED (Scan_37.en.tmp) ****
----------------
ORBITAL ENERGIES
----------------

  NO   OCC          E(Eh)            E(eV) 
   0   2.0000     -18.896590      -514.2024 
   1   2.0000     -10.601857      -288.4912 
   2   2.0000      -1.028347       -27.9827 
   3   2.0000      -0.760648       -20.6983 
   4   2.0000      -0.746151       -20.3038 
   5   2.0000      -0.731028       -19.8923 
   6   2.0000      -0.226732        -6.1697 
   7   2.0000      -0.069365        -1.8875 
   8   2.0000      -0.069360        -1.8874 
   9   0.0000      -0.245997        -6.6939 
  10   0.0000       0.065703         1.7879 
  11   0.0000       0.109260         2.9731 
  12   0.0000       0.164872         4.4864 
  13   0.0000       0.407224        11.0811 
  14   0.0000       0.451888        12.2965 
  15   0.0000       0.463713        12.6183 
  16   0.0000       0.476126        12.9561 
  17   0.0000       0.605843        16.4858 
  18   0.0000       0.817604        22.2481 
  19   0.0000       0.836142        22.7526 
  20   0.0000       0.895232        24.3605 
  21   0.0000       1.208909        32.8961 
  22   0.0000       1.281450        34.8700 
  23   0.0000       1.281507        34.8716 
  24   0.0000       1.385686        37.7064 
  25   0.0000       1.492642        40.6169 
  26   0.0000       1.493462        40.6392 
  27   0.0000       1.671020        45.4708 
  28   0.0000       1.897369        51.6300 
  29   0.0000       2.052322        55.8465 
  30   0.0000       2.055357        55.9291 
  31   0.0000       2.169695        59.0404 
  32   0.0000       2.169734        59.0415 
  33   0.0000       2.236496        60.8582 
  34   0.0000       2.236834        60.8673 
  35   0.0000       2.876646        78.2775 

                    ********************************
                    * MULLIKEN POPULATION ANALYSIS *
                    ********************************

-----------------------
MULLIKEN ATOMIC CHARGES
-----------------------
   0 C :   -0.103842
   1 O :   -1.221217
   2 H :    0.327821
   3 H :    0.327792
   4 H :    0.413573
   5 H :    0.255873
Sum of atomic charges:   -0.0000000

--------------------------------
MULLIKEN REDUCED ORBITAL CHARGES
--------------------------------
  0 C s       :     3.548002  s :     3.548002
      pz      :     0.547423  p :     2.533073
      px      :     1.323516
      py      :     0.662135
      dz2     :     0.001635  d :     0.022767
      dxz     :     0.004654
      dyz     :     0.005448
      dx2y2   :     0.005380
      dxy     :     0.005650
  1 O s       :     3.914037  s :     3.914037
      pz      :     1.998283  p :     5.294196
      px      :     1.297580
      py      :     1.998332
      dz2     :     0.002627  d :     0.012984
      dxz     :     0.001238
      dyz     :     0.000000
      dx2y2   :     0.007880
      dxy     :     0.001239
  2 H s       :     0.672179  s :     0.672179
  3 H s       :     0.672208  s :     0.672208
  4 H s       :     0.586427  s :     0.586427
  5 H s       :     0.744127  s :     0.744127


                     *******************************
                     * LOEWDIN POPULATION ANALYSIS *
                     *******************************

----------------------
LOEWDIN ATOMIC CHARGES
----------------------
   0 C :    0.252624
   1 O :   -1.173218
   2 H :    0.225870
   3 H :    0.225791
   4 H :    0.269872
   5 H :    0.199061

-------------------------------
LOEWDIN REDUCED ORBITAL CHARGES
-------------------------------
  0 C s       :     3.198862  s :     3.198862
      pz      :     0.555823  p :     2.515551
      px      :     1.287380
      py      :     0.672348
      dz2     :     0.002266  d :     0.032963
      dxz     :     0.007202
      dyz     :     0.006916
      dx2y2   :     0.007843
      dxy     :     0.008736
  1 O s       :     3.776011  s :     3.776011
      pz      :     1.998308  p :     5.378481
      px      :     1.381820
      py      :     1.998353
      dz2     :     0.004062  d :     0.018726
      dxz     :     0.001238
      dyz     :     0.000000
      dx2y2   :     0.012186
      dxy     :     0.001239
  2 H s       :     0.774130  s :     0.774130
  3 H s       :     0.774209  s :     0.774209
  4 H s       :     0.730128  s :     0.730128
  5 H s       :     0.800939  s :     0.800939


                      *****************************
                      * MAYER POPULATION ANALYSIS *
                      *****************************

  NA   - Mulliken gross atomic population
  ZA   - Total nuclear charge
  QA   - Mulliken gross atomic charge
  VA   - Mayer's total valence
  BVA  - Mayer's bonded valence
  FA   - Mayer's free valence

  ATOM       NA         ZA         QA         VA         BVA        FA
  0 C      6.1038     6.0000    -0.1038     2.5037     2.5037    -0.0000
  1 O      9.2212     8.0000    -1.2212     0.9335     0.9335     0.0000
  2 H      0.6722     1.0000     0.3278     0.8665     0.8665    -0.0000
  3 H      0.6722     1.0000     0.3278     0.8665     0.8665    -0.0000
  4 H      0.5864     1.0000     0.4136     0.8419     0.8419    -0.0000
  5 H      0.7441     1.0000     0.2559     0.8876     0.8876     0.0000

  Mayer bond orders larger than 0.1
B(  0-C ,  2-H ) :   0.8708 B(  0-C ,  3-H ) :   0.8708 B(  0-C ,  4-H ) :   0.7708 
B(  1-O ,  5-H ) :   0.8764 

-------
TIMINGS
-------

Total SCF time: 0 days 0 hours 0 min 13 sec 

Total time                  ....      13.448 sec
Sum of individual times     ....      12.900 sec  ( 95.9%)

Fock matrix formation       ....      12.474 sec  ( 92.8%)
  XC integration            ....       3.628 sec  ( 29.1% of F)
    Basis function eval.    ....       1.133 sec  ( 31.2% of XC)
    Density eval.           ....       0.168 sec  (  4.6% of XC)
    XC-Functional eval.     ....       1.030 sec  ( 28.4% of XC)
    XC-Potential eval.      ....       0.100 sec  (  2.8% of XC)
Diagonalization             ....       0.029 sec  (  0.2%)
Density matrix formation    ....       0.001 sec  (  0.0%)
Population analysis         ....       0.011 sec  (  0.1%)
Initial guess               ....       0.128 sec  (  1.0%)
Orbital Transformation      ....       0.000 sec  (  0.0%)
Orbital Orthonormalization  ....       0.000 sec  (  0.0%)
DIIS solution               ....       0.000 sec  (  0.0%)
Grid generation             ....       0.257 sec  (  1.9%)


-------------------------------------------------------------------------------
                          DFT DISPERSION CORRECTION                            
                                                                               
                              DFTD3 V3.1  Rev 1                                
                              USING zero damping                               
-------------------------------------------------------------------------------
The omegaB97X-D3 functional is recognized. Fit by Chai et al.
Active option DFTDOPT                   ...         3   

molecular C6(AA) [au] = 243.649664 


            DFT-D V3
 parameters
 s6 scaling factor         :     1.0000 
 rs6 scaling factor        :     1.2810 
 s8 scaling factor         :     1.0000 
 rs8 scaling factor        :     1.0940 
 Damping factor alpha6     :    14.0000 
 Damping factor alpha8     :    16.0000 
 ad hoc parameters k1-k3   :    16.0000     1.3333    -4.0000 

 Edisp/kcal,au: -0.183697380334  -0.000292740378 
 E6   /kcal   :  -0.111742983 
 E8   /kcal   :  -0.071954397 
 % E8         :  39.170072414 

-------------------------   ----------------
Dispersion correction           -0.000292740
-------------------------   ----------------


-------------------------   --------------------
FINAL SINGLE POINT ENERGY      -115.300520126474
-------------------------   --------------------


                            ***************************************
                            *     ORCA property calculations      *
                            ***************************************

                                    ---------------------
                                    Active property flags
                                    ---------------------
   (+) Dipole Moment


------------------------------------------------------------------------------
                       ORCA ELECTRIC PROPERTIES CALCULATION
------------------------------------------------------------------------------

Dipole Moment Calculation                       ... on
Quadrupole Moment Calculation                   ... off
Polarizability Calculation                      ... off
GBWName                                         ... Scan_37.gbw
Electron density file                           ... Scan_37.scfp.tmp

-------------
DIPOLE MOMENT
-------------
                                X             Y             Z
Electronic contribution:     -3.47928       0.05022       0.07394
Nuclear contribution   :     -3.58639       0.07366       0.10055
                        -----------------------------------------
Total Dipole Moment    :     -7.06567       0.12389       0.17449
                        -----------------------------------------
Magnitude (a.u.)       :      7.06891
Magnitude (Debye)      :     17.96774


Timings for individual modules:

Sum of individual times         ...       13.779 sec (=   0.230 min)
GTO integral calculation        ...        0.298 sec (=   0.005 min)   2.2 %
SCF iterations                  ...       13.481 sec (=   0.225 min)  97.8 %
                             ****ORCA TERMINATED NORMALLY****
TOTAL RUN TIME: 0 days 0 hours 0 minutes 14 seconds 93 msec
