
                                 *****************
                                 * O   R   C   A *
                                 *****************

           --- An Ab Initio, DFT and Semiempirical electronic structure package ---

                  #######################################################
                  #                        -***-                        #
                  #  Department of molecular theory and spectroscopy    #
                  #              Directorship: Frank Neese              #
                  # Max Planck Institute for Chemical Energy Conversion #
                  #                  D-45470 Muelheim/Ruhr              #
                  #                       Germany                       #
                  #                                                     #
                  #                  All rights reserved                #
                  #                        -***-                        #
                  #######################################################


                         Program Version 4.0.0.2 - RELEASE -


 With contributions from (in alphabetic order):
   Daniel Aravena         : Magnetic Properties
   Michael Atanasov       : Ab Initio Ligand Field Theory
   Ute Becker             : Parallelization
   Martin Brehm           : Molecular dynamics
   Dmytro Bykov           : SCF Hessian
   Vijay G. Chilkuri      : MRCI spin determinant printing
   Dipayan Datta          : RHF DLPNO-CCSD density
   Achintya Kumar Dutta   : EOM-CC, STEOM-CC
   Dmitry Ganyushin       : Spin-Orbit,Spin-Spin,Magnetic field MRCI
   Yang Guo               : DLPNO-NEVPT2, CIM, IAO-localization
   Andreas Hansen         : Spin unrestricted coupled pair/coupled cluster methods
   Lee Huntington         : MR-EOM, pCC
   Robert Izsak           : Overlap fitted RIJCOSX, COSX-SCS-MP3, EOM
   Christian Kollmar      : KDIIS, OOCD, Brueckner-CCSD(T), CCSD density
   Simone Kossmann        : Meta GGA functionals, TD-DFT gradient, OOMP2, MP2 Hessian
   Martin Krupicka        : AUTO-CI
   Dagmar Lenk            : GEPOL surface
   Dimitrios Liakos       : Extrapolation schemes; parallel MDCI
   Dimitrios Manganas     : ROCIS; embedding schemes
   Dimitrios Pantazis     : SARC Basis sets
   Taras Petrenko         : DFT Hessian,TD-DFT gradient, ASA, ECA, R-Raman, ABS, FL, XAS/XES, NRVS
   Peter Pinski           : DLPNO-MP2
   Christoph Reimann      : Effective Core Potentials
   Marius Retegan         : Local ZFS, SOC
   Christoph Riplinger    : Optimizer, TS searches, QM/MM, DLPNO-CCSD(T), (RO)-DLPNO pert. Triples
   Tobias Risthaus        : Range-separated hybrids, TD-DFT gradient, RPA, STAB
   Michael Roemelt        : Restricted open shell CIS
   Masaaki Saitow         : Open-shell DLPNO
   Barbara Sandhoefer     : DKH picture change effects
   Kantharuban Sivalingam : CASSCF convergence, NEVPT2, FIC-MRCI
   Georgi Stoychev        : AutoAux
   Boris Wezisla          : Elementary symmetry handling
   Frank Wennmohs         : Technical directorship


 We gratefully acknowledge several colleagues who have allowed us to
 interface, adapt or use parts of their codes:
   Stefan Grimme, W. Hujo, H. Kruse,             : VdW corrections, initial TS optimization,
                  C. Bannwarth                     DFT functionals, gCP, sTDA/sTD-DF
   Ed Valeev                                     : LibInt (2-el integral package), F12 methods
   Garnet Chan, S. Sharma, J. Yang, R. Olivares  : DMRG
   Ulf Ekstrom                                   : XCFun DFT Library
   Mihaly Kallay                                 : mrcc  (arbitrary order and MRCC methods)
   Jiri Pittner, Ondrej Demel                    : Mk-CCSD
   Frank Weinhold                                : gennbo (NPA and NBO analysis)
   Christopher J. Cramer and Donald G. Truhlar   : smd solvation model


 Your calculation uses the libint2 library for the computation of 2-el integrals
 For citations please refer to: http://libint.valeyev.net

 This ORCA versions uses:
   CBLAS   interface :  Fast vector & matrix operations
   LAPACKE interface :  Fast linear algebra routines
   SCALAPACK package :  Parallel linear algebra routines


Your calculation utilizes the atom-pairwise dispersion correction
with the zero-damping scheme (D30)
Cite in your paper:
S.Grimme, J.Antony, S.Ehrlich and H.Krieg, J.Chem.Phys., 132, (2010), 154104 
   

XCFun DFT library Copyright 2009-2010 Ulf Ekstrom and contributors.
See http://admol.org/xcfun for more information. This is free soft-
ware; see the source code for copying conditions. There is ABSOLUTELY
NO WARRANTY; not even for MERCHANTABILITY or FITNESS FOR A PARTICULAR
PURPOSE. For details see the documentation. Scientific users of this 
library should cite U. Ekstrom, L. Visscher, R. Bast, A. J. Thorvald-
sen and K. Ruud; J.Chem.Theor.Comp. 2010, DOI: 10.1021/ct100117s
XCFun Version 0.99 
Your calculation utilizes the basis: 6-31G(d)
   H-He, Li-Ne : W. J. Hehre, R. Ditchfield and J.A. Pople, J. Chem. Phys. 56, 2257 (1972).
                 Note: He and Ne are unpublished basis sets taken from the Gaussian program.
                 Note: Li and B from J. D. Dill and J. A. Pople, J. Chem. Phys. 62, 2921 (1975).
   Na - Ar     : M. M. Francl, W. J. Pietro, W. J. Hehre, J. S. Binkley, M. S. Gordon, 
                 D. J. DeFrees and J. A. Pople, J. Chem. Phys. 77, 3654 (1982).
   K - Zn      : V. A. Rassolov, J. A. Pople, M. A. Ratner, and T. L. Windus, J. Chem. Phys. 109, 1223 (1998).

================================================================================
                                        WARNINGS
                       Please study these warnings very carefully!
================================================================================

Warning: TCutStore was < 0. Adjusted to Thresh (uncritical)

INFO   : the flag for use of LIBINT has been found!

================================================================================
                                       INPUT FILE
================================================================================
NAME = initial38.inp
|  1> ! WB97X-D3 6-31G(d) VerySlowConv
|  2> ! KDIIS NOSOSCF
|  3> %base "Scan_38"
|  4> 
|  5> %scf
|  6> maxiter 999
|  7> end
|  8> 
|  9> * xyz 0 1
| 10> C         -5.234718334677    2.438277538117    0.146783669539
| 11> O         -0.954133699302    2.368950871286    0.047213168190
| 12> H         -5.772833764339    3.136693053064   -0.460180838983
| 13> H         -5.766087860814    1.764188772919    0.786321846945
| 14> H         -4.162986660520    2.414040737680    0.114296360589
| 15> H          0.003650319650    2.369479026936    0.042565793721
| 16> **                         ****END OF INPUT****
================================================================================

                       ****************************
                       * Single Point Calculation *
                       ****************************

---------------------------------
CARTESIAN COORDINATES (ANGSTROEM)
---------------------------------
  C     -5.234718    2.438278    0.146784
  O     -0.954134    2.368951    0.047213
  H     -5.772834    3.136693   -0.460181
  H     -5.766088    1.764189    0.786322
  H     -4.162987    2.414041    0.114296
  H      0.003650    2.369479    0.042566

----------------------------
CARTESIAN COORDINATES (A.U.)
----------------------------
  NO LB      ZA    FRAG     MASS         X           Y           Z
   0 C     6.0000    0    12.011   -9.892184    4.607677    0.277381
   1 O     8.0000    0    15.999   -1.803051    4.476668    0.089220
   2 H     1.0000    0     1.008  -10.909075    5.927491   -0.869616
   3 H     1.0000    0     1.008  -10.896327    3.333834    1.485933
   4 H     1.0000    0     1.008   -7.866905    4.561876    0.215989
   5 H     1.0000    0     1.008    0.006898    4.477666    0.080438

--------------------------------
INTERNAL COORDINATES (ANGSTROEM)
--------------------------------
 C      0   0   0     0.000000000000     0.00000000     0.00000000
 O      1   0   0     4.282303736551     0.00000000     0.00000000
 H      1   2   0     1.070401028477   119.99336863     0.00000000
 H      1   2   3     1.070401007582   119.99462980   180.64297814
 H      1   2   3     1.072497845746     0.54577034    90.38581578
 H      2   1   3     0.957795439537   178.57453287    89.63024784

---------------------------
INTERNAL COORDINATES (A.U.)
---------------------------
 C      0   0   0     0.000000000000     0.00000000     0.00000000
 O      1   0   0     8.092381284350     0.00000000     0.00000000
 H      1   2   0     2.022764797289   119.99336863     0.00000000
 H      1   2   3     2.022764757804   119.99462980   180.64297814
 H      1   2   3     2.026727207680     0.54577034    90.38581578
 H      2   1   3     1.809971073043   178.57453287    89.63024784

---------------------
BASIS SET INFORMATION
---------------------
There are 3 groups of distinct atoms

 Group   1 Type C   : 10s4p1d contracted to 3s2p1d pattern {631/31/1}
 Group   2 Type O   : 10s4p1d contracted to 3s2p1d pattern {631/31/1}
 Group   3 Type H   : 4s contracted to 2s pattern {31}

Atom   0C    basis set group =>   1
Atom   1O    basis set group =>   2
Atom   2H    basis set group =>   3
Atom   3H    basis set group =>   3
Atom   4H    basis set group =>   3
Atom   5H    basis set group =>   3
------------------------------------------------------------------------------
                           ORCA GTO INTEGRAL CALCULATION
------------------------------------------------------------------------------

                         BASIS SET STATISTICS AND STARTUP INFO

 # of primitive gaussian shells          ...   46
 # of primitive gaussian functions       ...   70
 # of contracted shells                  ...   20
 # of contracted basis functions         ...   36
 Highest angular momentum                ...    2
 Maximum contraction depth               ...    6
 Integral package used                   ... LIBINT
 Integral threshhold            Thresh   ...  1.000e-10
 Primitive cut-off              TCut     ...  1.000e-11


------------------------------ INTEGRAL EVALUATION ----------------------------


 * One electron integrals 
 Pre-screening matrix                    ... done
 Shell pair data                         ... done (   0.000 sec)

-------------------------------------------------------------------------------
                                 ORCA SCF
-------------------------------------------------------------------------------

------------
SCF SETTINGS
------------
Hamiltonian:
 Density Functional     Method          .... DFT(GTOs)
 Exchange Functional    Exchange        .... WB97X-D3
 Correlation Functional Correlation     .... WB97X-D3
 Gradients option       PostSCFGGA      .... off
 Hybrid DFT is turned on
   Fraction HF Exchange ScalHFX         ....  0.195728
   Scaling of DF-GGA-X  ScalDFX         ....  0.000000
   Scaling of DF-GGA-C  ScalDFC         ....  1.000000
   Scaling of DF-LDA-C  ScalLDAC        ....  1.000000
   Perturbative correction              ....  0.000000
 Long-range corrected/Screened/Range-Separated Hybrid DFT is turned on
   Amount of maximum screened exact exchange              ....  0.804272
   Range separation parameter mu (erf(mu*r12)/r12)        ....  0.250000


General Settings:
 Integral files         IntName         .... Scan_38
 Hartree-Fock type      HFTyp           .... RHF
 Total Charge           Charge          ....    0
 Multiplicity           Mult            ....    1
 Number of Electrons    NEL             ....   18
 Basis Dimension        Dim             ....   36
 Nuclear Repulsion      ENuc            ....     24.0587286341 Eh

Convergence Acceleration:
 DIIS                   CNVDIIS         .... on
   Start iteration      DIISMaxIt       ....     0
   Startup error        DIISStart       ....  0.200000
   # of expansion vecs  DIISMaxEq       ....     5
   Bias factor          DIISBfac        ....   1.050
   Max. coefficient     DIISMaxC        ....  10.000
 Newton-Raphson         CNVNR           .... off
 SOSCF                  CNVSOSCF        .... off
 Level Shifting         CNVShift        .... off
 Zerner damping         CNVZerner       .... off
 Static damping         CNVDamp         .... off
 Fernandez-Rico         CNVRico         .... off

SCF Procedure:
 Maximum # iterations   MaxIter         ....   999
 SCF integral mode      SCFMode         .... Direct
   Integral package                     .... LIBINT
 Reset frequeny         DirectResetFreq ....    20
 Integral Threshold     Thresh          ....  1.000e-10 Eh
 Primitive CutOff       TCut            ....  1.000e-11 Eh

Convergence Tolerance:
 Convergence Check Mode ConvCheckMode   .... All-Criteria
 Convergence forced     ConvForced      .... 0
 Energy Change          TolE            ....  1.000e-06 Eh
 Max Density Change     TolMaxP         ....  1.000e-05
 RMS Density Change     TolRMSP         ....  1.000e-06
 DIIS Error             TolErr          ....  1.000e-06


Diagonalization of the overlap matrix:
Smallest eigenvalue                        ... 3.031e-02
Time for diagonalization                   ...    0.001 sec
Threshold for overlap eigenvalues          ... 1.000e-08
Number of eigenvalues below threshold      ... 0
Time for construction of square roots      ...    0.005 sec
Total time needed                          ...    0.006 sec

-------------------
DFT GRID GENERATION
-------------------

General Integration Accuracy     IntAcc      ...  4.340
Radial Grid Type                 RadialGrid  ... Gauss-Chebyshev
Angular Grid (max. acc.)         AngularGrid ... Lebedev-110
Angular grid pruning method      GridPruning ... 3 (G Style)
Weight generation scheme         WeightScheme... Becke
Basis function cutoff            BFCut       ...    1.0000e-10
Integration weight cutoff        WCut        ...    1.0000e-14
Grids for H and He will be reduced by one unit

# of grid points (after initial pruning)     ...   6548 (   0.0 sec)
# of grid points (after weights+screening)   ...   6400 (   0.0 sec)
nearest neighbour list constructed           ...    0.0 sec
Grid point re-assignment to atoms done       ...    0.0 sec
Grid point division into batches done        ...    0.0 sec
Reduced shell lists constructed in    0.0 sec

Total number of grid points                  ...     6400
Total number of batches                      ...      104
Average number of points per batch           ...       61
Average number of grid points per atom       ...     1067
Average number of shells per batch           ...    13.86 (69.29%)
Average number of basis functions per batch  ...    24.20 (67.22%)
Average number of large shells per batch     ...    11.06 (79.79%)
Average number of large basis fcns per batch ...    19.51 (80.64%)
Maximum spatial batch extension              ...  19.05, 20.95, 22.36 au
Average spatial batch extension              ...   4.64,  5.77,  5.71 au

Time for grid setup =    0.046 sec

------------------------------
INITIAL GUESS: MODEL POTENTIAL
------------------------------
Loading Hartree-Fock densities                     ... done
Calculating cut-offs                               ... done
Setting up the integral package                    ... done
Initializing the effective Hamiltonian             ... done
Starting the Coulomb interaction                   ... done (   0.0 sec)
Reading the grid                                   ... done
Mapping shells                                     ... done
Starting the XC term evaluation                    ... done (   0.0 sec)
  promolecular density results
     # of electrons  =     18.002898902
     EX              =    -14.307492573
     EC              =     -0.539857380
     EX+EC           =    -14.847349953
Transforming the Hamiltonian                       ... done (   0.0 sec)
Diagonalizing the Hamiltonian                      ... done (   0.0 sec)
Back transforming the eigenvectors                 ... done (   0.0 sec)
Now organizing SCF variables                       ... done
                      ------------------
                      INITIAL GUESS DONE (   0.2 sec)
                      ------------------
--------------
SCF ITERATIONS
--------------
ITER       Energy         Delta-E        Max-DP      RMS-DP      [F,P]   Gradient Norm
               ***  Starting incremental Fock matrix formation  ***
                             ****Resetting KDIIS****
                             ****Turning on KDIIS(Cayley)****
  0   -115.0800784089   0.000000000000 0.05924308  0.00392282  0.2607157   0.175725525
  1   -115.1630867507  -0.083008341764 0.05279567  0.00357448  0.2062207   0.137487638
  2   -115.2142187431  -0.051131992376 0.06199326  0.00498353  0.1574713   0.107280203
  3   -115.2628912057  -0.048672462595 0.08984196  0.00771568  0.0941777   0.066954583
  4   -115.2937108228  -0.030819617142 0.03063226  0.00291467  0.0169980   0.011460553
  5   -115.2954003516  -0.001689528820 0.02530744  0.00324459  0.0130856   0.008346824
  6   -115.2997594386  -0.004359086946 0.02844234  0.00252948  0.0274100   0.012872566
  7   -115.2950401841   0.004719254454 0.03434381  0.00310203  0.0082440   0.006896392
  8   -115.2953610624  -0.000320878293 0.01461627  0.00117293  0.0019939   0.001436480
  9   -115.2954523476  -0.000091285198 0.00757877  0.00067909  0.0012328   0.000829440
 10   -115.2954820519  -0.000029704302 0.00336693  0.00033638  0.0008928   0.000714672
 11   -115.2954951601  -0.000013108244 0.00094788  0.00009334  0.0004287   0.000416219
 12   -115.2954994713  -0.000004311154 0.00225190  0.00022171  0.0005234   0.000355120
 13   -115.2954953749   0.000004096404 0.00107897  0.00012882  0.0004035   0.000278933
 14   -115.2954984483  -0.000003073359 0.00041712  0.00004442  0.0003867   0.000225839
 15   -115.2954970896   0.000001358636 0.00051352  0.00004633  0.0002805   0.000212221
                          ***Energy convergence achieved***
 16   -115.2954976080  -0.000000518375 0.00103961  0.00009979  0.0003035   0.000218707
 17   -115.2954975867   0.000000021310 0.00118322  0.00012908  0.0002530   0.000237827
 18   -115.2954984700  -0.000000883298 0.00085053  0.00007219  0.0002421   0.000207692
 19   -115.2954994788  -0.000001008782 0.00051571  0.00004121  0.0001433   0.000113246
               *** Restarting incremental Fock matrix formation ***
                             ****Resetting KDIIS****
                          ***Energy convergence achieved***
 20   -115.2954999471  -0.000000468383 0.00011123  0.00000869  0.0001662   0.000114143

            ***Energy convergence in two consecutive cycles with***
                    ***'reasonable' density convergence***
                       *** signaling convergence ***

                    *** KDIIS BlockDiag ( 0.000 sec) ***

               *****************************************************
               *                     SUCCESS                       *
               *           SCF CONVERGED AFTER  21 CYCLES          *
               *****************************************************

Setting up the final grid:

General Integration Accuracy     IntAcc      ...  4.670
Radial Grid Type                 RadialGrid  ... Gauss-Chebyshev
Angular Grid (max. acc.)         AngularGrid ... Lebedev-302
Angular grid pruning method      GridPruning ... 3 (G Style)
Weight generation scheme         WeightScheme... Becke
Basis function cutoff            BFCut       ...    1.0000e-10
Integration weight cutoff        WCut        ...    1.0000e-14
Grids for H and He will be reduced by one unit

# of grid points (after initial pruning)     ...  26000 (   0.0 sec)
# of grid points (after weights+screening)   ...  25489 (   0.0 sec)
nearest neighbour list constructed           ...    0.0 sec
Grid point re-assignment to atoms done       ...    0.0 sec
Grid point division into batches done        ...    0.1 sec
Reduced shell lists constructed in    0.2 sec

Total number of grid points                  ...    25489
Total number of batches                      ...      403
Average number of points per batch           ...       63
Average number of grid points per atom       ...     4248
Average number of shells per batch           ...    12.52 (62.59%)
Average number of basis functions per batch  ...    21.82 (60.61%)
Average number of large shells per batch     ...     9.85 (78.70%)
Average number of large basis fcns per batch ...    17.41 (79.77%)
Maximum spatial batch extension              ...  20.82, 20.64, 20.64 au
Average spatial batch extension              ...   2.84,  3.35,  3.34 au

Final grid set up in    0.2 sec
Final integration                            ... done (   0.2 sec)
Change in XC energy                          ...    -0.000186123
Integrated number of electrons               ...    18.000009269
Previous integrated no of electrons          ...    17.993879249

----------------
TOTAL SCF ENERGY
----------------

Total Energy       :         -115.29568621 Eh           -3137.35512 eV

Components:
Nuclear Repulsion  :           24.05872863 Eh             654.67129 eV
Electronic Energy  :         -139.35441484 Eh           -3792.02641 eV
One Electron Energy:         -205.36184300 Eh           -5588.17985 eV
Two Electron Energy:           66.00742816 Eh            1796.15343 eV

Virial components:
Potential Energy   :         -230.10665296 Eh           -6261.52036 eV
Kinetic Energy     :          114.81096675 Eh            3124.16523 eV
Virial Ratio       :            2.00422189


DFT components:
N(Alpha)           :        9.000004634334 electrons
N(Beta)            :        9.000004634334 electrons
N(Total)           :       18.000009268668 electrons
E(XC)              :      -10.594544380233 Eh       

---------------
SCF CONVERGENCE
---------------

  Last Energy change         ...   -1.3737e-07  Tolerance :   1.0000e-06
  Last MAX-Density change    ...    6.6097e-05  Tolerance :   1.0000e-05
  Last RMS-Density change    ...    7.7075e-06  Tolerance :   1.0000e-06
  Last DIIS Error            ...    1.7530e-04  Tolerance :   1.0000e-06

             **** THE GBW FILE WAS UPDATED (Scan_38.gbw) ****
             **** DENSITY FILE WAS UPDATED (Scan_38.scfp.tmp) ****
             **** ENERGY FILE WAS UPDATED (Scan_38.en.tmp) ****
----------------
ORBITAL ENERGIES
----------------

  NO   OCC          E(Eh)            E(eV) 
   0   2.0000     -18.891208      -514.0559 
   1   2.0000     -10.606379      -288.6142 
   2   2.0000      -1.032649       -28.0998 
   3   2.0000      -0.764617       -20.8063 
   4   2.0000      -0.751027       -20.4365 
   5   2.0000      -0.726109       -19.7584 
   6   2.0000      -0.221309        -6.0221 
   7   2.0000      -0.064435        -1.7534 
   8   2.0000      -0.064413        -1.7528 
   9   0.0000      -0.250107        -6.8058 
  10   0.0000       0.062402         1.6981 
  11   0.0000       0.105970         2.8836 
  12   0.0000       0.158600         4.3157 
  13   0.0000       0.410292        11.1646 
  14   0.0000       0.448031        12.1916 
  15   0.0000       0.459436        12.5019 
  16   0.0000       0.472211        12.8495 
  17   0.0000       0.601665        16.3721 
  18   0.0000       0.813993        22.1499 
  19   0.0000       0.832436        22.6517 
  20   0.0000       0.892439        24.2845 
  21   0.0000       1.212852        33.0034 
  22   0.0000       1.286134        34.9975 
  23   0.0000       1.286172        34.9985 
  24   0.0000       1.370046        37.2808 
  25   0.0000       1.488390        40.5011 
  26   0.0000       1.489087        40.5201 
  27   0.0000       1.675183        45.5840 
  28   0.0000       1.893054        51.5126 
  29   0.0000       2.048138        55.7327 
  30   0.0000       2.050896        55.8077 
  31   0.0000       2.174768        59.1785 
  32   0.0000       2.174792        59.1791 
  33   0.0000       2.241399        60.9916 
  34   0.0000       2.241743        61.0009 
  35   0.0000       2.881256        78.4030 

                    ********************************
                    * MULLIKEN POPULATION ANALYSIS *
                    ********************************

-----------------------
MULLIKEN ATOMIC CHARGES
-----------------------
   0 C :   -0.103487
   1 O :   -1.224441
   2 H :    0.329917
   3 H :    0.329889
   4 H :    0.416452
   5 H :    0.251670
Sum of atomic charges:   -0.0000000

--------------------------------
MULLIKEN REDUCED ORBITAL CHARGES
--------------------------------
  0 C s       :     3.547623  s :     3.547623
      pz      :     0.548642  p :     2.533078
      px      :     1.320800
      py      :     0.663635
      dz2     :     0.001651  d :     0.022786
      dxz     :     0.004626
      dyz     :     0.005455
      dx2y2   :     0.005437
      dxy     :     0.005617
  1 O s       :     3.915898  s :     3.915898
      pz      :     1.998550  p :     5.295428
      px      :     1.298310
      py      :     1.998568
      dz2     :     0.002654  d :     0.013115
      dxz     :     0.001250
      dyz     :     0.000000
      dx2y2   :     0.007961
      dxy     :     0.001250
  2 H s       :     0.670083  s :     0.670083
  3 H s       :     0.670111  s :     0.670111
  4 H s       :     0.583548  s :     0.583548
  5 H s       :     0.748330  s :     0.748330


                     *******************************
                     * LOEWDIN POPULATION ANALYSIS *
                     *******************************

----------------------
LOEWDIN ATOMIC CHARGES
----------------------
   0 C :    0.254455
   1 O :   -1.175078
   2 H :    0.226990
   3 H :    0.226914
   4 H :    0.271054
   5 H :    0.195664

-------------------------------
LOEWDIN REDUCED ORBITAL CHARGES
-------------------------------
  0 C s       :     3.197770  s :     3.197770
      pz      :     0.556426  p :     2.514826
      px      :     1.285293
      py      :     0.673107
      dz2     :     0.002283  d :     0.032949
      dxz     :     0.007158
      dyz     :     0.006913
      dx2y2   :     0.007911
      dxy     :     0.008683
  1 O s       :     3.778387  s :     3.778387
      pz      :     1.998564  p :     5.377714
      px      :     1.380570
      py      :     1.998579
      dz2     :     0.004119  d :     0.018977
      dxz     :     0.001250
      dyz     :     0.000000
      dx2y2   :     0.012358
      dxy     :     0.001250
  2 H s       :     0.773010  s :     0.773010
  3 H s       :     0.773086  s :     0.773086
  4 H s       :     0.728946  s :     0.728946
  5 H s       :     0.804336  s :     0.804336


                      *****************************
                      * MAYER POPULATION ANALYSIS *
                      *****************************

  NA   - Mulliken gross atomic population
  ZA   - Total nuclear charge
  QA   - Mulliken gross atomic charge
  VA   - Mayer's total valence
  BVA  - Mayer's bonded valence
  FA   - Mayer's free valence

  ATOM       NA         ZA         QA         VA         BVA        FA
  0 C      6.1035     6.0000    -0.1035     2.5112     2.5112    -0.0000
  1 O      9.2244     8.0000    -1.2244     0.9248     0.9248    -0.0000
  2 H      0.6701     1.0000     0.3299     0.8653     0.8653    -0.0000
  3 H      0.6701     1.0000     0.3299     0.8653     0.8653    -0.0000
  4 H      0.5835     1.0000     0.4165     0.8336     0.8336     0.0000
  5 H      0.7483     1.0000     0.2517     0.8892     0.8892     0.0000

  Mayer bond orders larger than 0.1
B(  0-C ,  2-H ) :   0.8699 B(  0-C ,  3-H ) :   0.8699 B(  0-C ,  4-H ) :   0.7781 
B(  1-O ,  5-H ) :   0.8801 

-------
TIMINGS
-------

Total SCF time: 0 days 0 hours 0 min 7 sec 

Total time                  ....       7.843 sec
Sum of individual times     ....       7.549 sec  ( 96.3%)

Fock matrix formation       ....       7.080 sec  ( 90.3%)
  XC integration            ....       1.783 sec  ( 25.2% of F)
    Basis function eval.    ....       0.544 sec  ( 30.5% of XC)
    Density eval.           ....       0.080 sec  (  4.5% of XC)
    XC-Functional eval.     ....       0.502 sec  ( 28.2% of XC)
    XC-Potential eval.      ....       0.051 sec  (  2.8% of XC)
Diagonalization             ....       0.046 sec  (  0.6%)
Density matrix formation    ....       0.000 sec  (  0.0%)
Population analysis         ....       0.014 sec  (  0.2%)
Initial guess               ....       0.150 sec  (  1.9%)
Orbital Transformation      ....       0.000 sec  (  0.0%)
Orbital Orthonormalization  ....       0.000 sec  (  0.0%)
DIIS solution               ....       0.000 sec  (  0.0%)
Grid generation             ....       0.258 sec  (  3.3%)


-------------------------------------------------------------------------------
                          DFT DISPERSION CORRECTION                            
                                                                               
                              DFTD3 V3.1  Rev 1                                
                              USING zero damping                               
-------------------------------------------------------------------------------
The omegaB97X-D3 functional is recognized. Fit by Chai et al.
Active option DFTDOPT                   ...         3   

molecular C6(AA) [au] = 243.649729 


            DFT-D V3
 parameters
 s6 scaling factor         :     1.0000 
 rs6 scaling factor        :     1.2810 
 s8 scaling factor         :     1.0000 
 rs8 scaling factor        :     1.0940 
 Damping factor alpha6     :    14.0000 
 Damping factor alpha8     :    16.0000 
 ad hoc parameters k1-k3   :    16.0000     1.3333    -4.0000 

 Edisp/kcal,au: -0.166134037201  -0.000264751412 
 E6   /kcal   :  -0.106168076 
 E8   /kcal   :  -0.059965962 
 % E8         :  36.094928307 

-------------------------   ----------------
Dispersion correction           -0.000264751
-------------------------   ----------------


-------------------------   --------------------
FINAL SINGLE POINT ENERGY      -115.295950959010
-------------------------   --------------------


                            ***************************************
                            *     ORCA property calculations      *
                            ***************************************

                                    ---------------------
                                    Active property flags
                                    ---------------------
   (+) Dipole Moment


------------------------------------------------------------------------------
                       ORCA ELECTRIC PROPERTIES CALCULATION
------------------------------------------------------------------------------

Dipole Moment Calculation                       ... on
Quadrupole Moment Calculation                   ... off
Polarizability Calculation                      ... off
GBWName                                         ... Scan_38.gbw
Electron density file                           ... Scan_38.scfp.tmp

-------------
DIPOLE MOMENT
-------------
                                X             Y             Z
Electronic contribution:     -3.61293       0.05238       0.07705
Nuclear contribution   :     -3.69366       0.07307       0.10048
                        -----------------------------------------
Total Dipole Moment    :     -7.30659       0.12545       0.17754
                        -----------------------------------------
Magnitude (a.u.)       :      7.30982
Magnitude (Debye)      :     18.58010


Timings for individual modules:

Sum of individual times         ...        8.294 sec (=   0.138 min)
GTO integral calculation        ...        0.411 sec (=   0.007 min)   5.0 %
SCF iterations                  ...        7.883 sec (=   0.131 min)  95.0 %
                             ****ORCA TERMINATED NORMALLY****
TOTAL RUN TIME: 0 days 0 hours 0 minutes 8 seconds 684 msec
