
                                 *****************
                                 * O   R   C   A *
                                 *****************

           --- An Ab Initio, DFT and Semiempirical electronic structure package ---

                  #######################################################
                  #                        -***-                        #
                  #  Department of molecular theory and spectroscopy    #
                  #              Directorship: Frank Neese              #
                  # Max Planck Institute for Chemical Energy Conversion #
                  #                  D-45470 Muelheim/Ruhr              #
                  #                       Germany                       #
                  #                                                     #
                  #                  All rights reserved                #
                  #                        -***-                        #
                  #######################################################


                         Program Version 4.0.0.2 - RELEASE -


 With contributions from (in alphabetic order):
   Daniel Aravena         : Magnetic Properties
   Michael Atanasov       : Ab Initio Ligand Field Theory
   Ute Becker             : Parallelization
   Martin Brehm           : Molecular dynamics
   Dmytro Bykov           : SCF Hessian
   Vijay G. Chilkuri      : MRCI spin determinant printing
   Dipayan Datta          : RHF DLPNO-CCSD density
   Achintya Kumar Dutta   : EOM-CC, STEOM-CC
   Dmitry Ganyushin       : Spin-Orbit,Spin-Spin,Magnetic field MRCI
   Yang Guo               : DLPNO-NEVPT2, CIM, IAO-localization
   Andreas Hansen         : Spin unrestricted coupled pair/coupled cluster methods
   Lee Huntington         : MR-EOM, pCC
   Robert Izsak           : Overlap fitted RIJCOSX, COSX-SCS-MP3, EOM
   Christian Kollmar      : KDIIS, OOCD, Brueckner-CCSD(T), CCSD density
   Simone Kossmann        : Meta GGA functionals, TD-DFT gradient, OOMP2, MP2 Hessian
   Martin Krupicka        : AUTO-CI
   Dagmar Lenk            : GEPOL surface
   Dimitrios Liakos       : Extrapolation schemes; parallel MDCI
   Dimitrios Manganas     : ROCIS; embedding schemes
   Dimitrios Pantazis     : SARC Basis sets
   Taras Petrenko         : DFT Hessian,TD-DFT gradient, ASA, ECA, R-Raman, ABS, FL, XAS/XES, NRVS
   Peter Pinski           : DLPNO-MP2
   Christoph Reimann      : Effective Core Potentials
   Marius Retegan         : Local ZFS, SOC
   Christoph Riplinger    : Optimizer, TS searches, QM/MM, DLPNO-CCSD(T), (RO)-DLPNO pert. Triples
   Tobias Risthaus        : Range-separated hybrids, TD-DFT gradient, RPA, STAB
   Michael Roemelt        : Restricted open shell CIS
   Masaaki Saitow         : Open-shell DLPNO
   Barbara Sandhoefer     : DKH picture change effects
   Kantharuban Sivalingam : CASSCF convergence, NEVPT2, FIC-MRCI
   Georgi Stoychev        : AutoAux
   Boris Wezisla          : Elementary symmetry handling
   Frank Wennmohs         : Technical directorship


 We gratefully acknowledge several colleagues who have allowed us to
 interface, adapt or use parts of their codes:
   Stefan Grimme, W. Hujo, H. Kruse,             : VdW corrections, initial TS optimization,
                  C. Bannwarth                     DFT functionals, gCP, sTDA/sTD-DF
   Ed Valeev                                     : LibInt (2-el integral package), F12 methods
   Garnet Chan, S. Sharma, J. Yang, R. Olivares  : DMRG
   Ulf Ekstrom                                   : XCFun DFT Library
   Mihaly Kallay                                 : mrcc  (arbitrary order and MRCC methods)
   Jiri Pittner, Ondrej Demel                    : Mk-CCSD
   Frank Weinhold                                : gennbo (NPA and NBO analysis)
   Christopher J. Cramer and Donald G. Truhlar   : smd solvation model


 Your calculation uses the libint2 library for the computation of 2-el integrals
 For citations please refer to: http://libint.valeyev.net

 This ORCA versions uses:
   CBLAS   interface :  Fast vector & matrix operations
   LAPACKE interface :  Fast linear algebra routines
   SCALAPACK package :  Parallel linear algebra routines


Your calculation utilizes the atom-pairwise dispersion correction
with the zero-damping scheme (D30)
Cite in your paper:
S.Grimme, J.Antony, S.Ehrlich and H.Krieg, J.Chem.Phys., 132, (2010), 154104 
   

XCFun DFT library Copyright 2009-2010 Ulf Ekstrom and contributors.
See http://admol.org/xcfun for more information. This is free soft-
ware; see the source code for copying conditions. There is ABSOLUTELY
NO WARRANTY; not even for MERCHANTABILITY or FITNESS FOR A PARTICULAR
PURPOSE. For details see the documentation. Scientific users of this 
library should cite U. Ekstrom, L. Visscher, R. Bast, A. J. Thorvald-
sen and K. Ruud; J.Chem.Theor.Comp. 2010, DOI: 10.1021/ct100117s
XCFun Version 0.99 
Your calculation utilizes the basis: 6-31G(d)
   H-He, Li-Ne : W. J. Hehre, R. Ditchfield and J.A. Pople, J. Chem. Phys. 56, 2257 (1972).
                 Note: He and Ne are unpublished basis sets taken from the Gaussian program.
                 Note: Li and B from J. D. Dill and J. A. Pople, J. Chem. Phys. 62, 2921 (1975).
   Na - Ar     : M. M. Francl, W. J. Pietro, W. J. Hehre, J. S. Binkley, M. S. Gordon, 
                 D. J. DeFrees and J. A. Pople, J. Chem. Phys. 77, 3654 (1982).
   K - Zn      : V. A. Rassolov, J. A. Pople, M. A. Ratner, and T. L. Windus, J. Chem. Phys. 109, 1223 (1998).

================================================================================
                                        WARNINGS
                       Please study these warnings very carefully!
================================================================================

Warning: TCutStore was < 0. Adjusted to Thresh (uncritical)

INFO   : the flag for use of LIBINT has been found!

================================================================================
                                       INPUT FILE
================================================================================
NAME = initial39.inp
|  1> ! WB97X-D3 6-31G(d) VerySlowConv
|  2> ! KDIIS NOSOSCF
|  3> %base "Scan_39"
|  4> 
|  5> %scf
|  6> maxiter 999
|  7> end
|  8> 
|  9> * xyz 0 1
| 10> C         -5.268835504167    2.438819651347    0.147565727096
| 11> O         -0.885856991531    2.368573031018    0.046425481473
| 12> H         -5.806929287431    3.136851332678   -0.459794031892
| 13> H         -5.800182126559    1.764373804625    0.786684298705
| 14> H         -4.197302571245    2.415234578163    0.115795965560
| 15> H          0.071996480934    2.367777602171    0.040322559058
| 16> **                         ****END OF INPUT****
================================================================================

                       ****************************
                       * Single Point Calculation *
                       ****************************

---------------------------------
CARTESIAN COORDINATES (ANGSTROEM)
---------------------------------
  C     -5.268836    2.438820    0.147566
  O     -0.885857    2.368573    0.046425
  H     -5.806929    3.136851   -0.459794
  H     -5.800182    1.764374    0.786684
  H     -4.197303    2.415235    0.115796
  H      0.071996    2.367778    0.040323

----------------------------
CARTESIAN COORDINATES (A.U.)
----------------------------
  NO LB      ZA    FRAG     MASS         X           Y           Z
   0 C     6.0000    0    12.011   -9.956656    4.608701    0.278859
   1 O     8.0000    0    15.999   -1.674027    4.475954    0.087731
   2 H     1.0000    0     1.008  -10.973506    5.927790   -0.868885
   3 H     1.0000    0     1.008  -10.960756    3.334183    1.486618
   4 H     1.0000    0     1.008   -7.931752    4.564132    0.218823
   5 H     1.0000    0     1.008    0.136054    4.474451    0.076199

--------------------------------
INTERNAL COORDINATES (ANGSTROEM)
--------------------------------
 C      0   0   0     0.000000000000     0.00000000     0.00000000
 O      1   0   0     4.384708038077     0.00000000     0.00000000
 H      1   2   0     1.070363968268   119.99214268     0.00000000
 H      1   2   3     1.070363948320   119.99333517   180.59157585
 H      1   2   3     1.072263213843     0.50874639    90.36117607
 H      2   1   3     0.957873244789   178.70653382    89.65534325

---------------------------
INTERNAL COORDINATES (A.U.)
---------------------------
 C      0   0   0     0.000000000000     0.00000000     0.00000000
 O      1   0   0     8.285897369170     0.00000000     0.00000000
 H      1   2   0     2.022694763644   119.99214268     0.00000000
 H      1   2   3     2.022694725948   119.99333517   180.59157585
 H      1   2   3     2.026283817642     0.50874639    90.36117607
 H      2   1   3     1.810118103661   178.70653382    89.65534325

---------------------
BASIS SET INFORMATION
---------------------
There are 3 groups of distinct atoms

 Group   1 Type C   : 10s4p1d contracted to 3s2p1d pattern {631/31/1}
 Group   2 Type O   : 10s4p1d contracted to 3s2p1d pattern {631/31/1}
 Group   3 Type H   : 4s contracted to 2s pattern {31}

Atom   0C    basis set group =>   1
Atom   1O    basis set group =>   2
Atom   2H    basis set group =>   3
Atom   3H    basis set group =>   3
Atom   4H    basis set group =>   3
Atom   5H    basis set group =>   3
------------------------------------------------------------------------------
                           ORCA GTO INTEGRAL CALCULATION
------------------------------------------------------------------------------

                         BASIS SET STATISTICS AND STARTUP INFO

 # of primitive gaussian shells          ...   46
 # of primitive gaussian functions       ...   70
 # of contracted shells                  ...   20
 # of contracted basis functions         ...   36
 Highest angular momentum                ...    2
 Maximum contraction depth               ...    6
 Integral package used                   ... LIBINT
 Integral threshhold            Thresh   ...  1.000e-10
 Primitive cut-off              TCut     ...  1.000e-11


------------------------------ INTEGRAL EVALUATION ----------------------------


 * One electron integrals 
 Pre-screening matrix                    ... done
 Shell pair data                         ... done (   0.000 sec)

-------------------------------------------------------------------------------
                                 ORCA SCF
-------------------------------------------------------------------------------

------------
SCF SETTINGS
------------
Hamiltonian:
 Density Functional     Method          .... DFT(GTOs)
 Exchange Functional    Exchange        .... WB97X-D3
 Correlation Functional Correlation     .... WB97X-D3
 Gradients option       PostSCFGGA      .... off
 Hybrid DFT is turned on
   Fraction HF Exchange ScalHFX         ....  0.195728
   Scaling of DF-GGA-X  ScalDFX         ....  0.000000
   Scaling of DF-GGA-C  ScalDFC         ....  1.000000
   Scaling of DF-LDA-C  ScalLDAC        ....  1.000000
   Perturbative correction              ....  0.000000
 Long-range corrected/Screened/Range-Separated Hybrid DFT is turned on
   Amount of maximum screened exact exchange              ....  0.804272
   Range separation parameter mu (erf(mu*r12)/r12)        ....  0.250000


General Settings:
 Integral files         IntName         .... Scan_39
 Hartree-Fock type      HFTyp           .... RHF
 Total Charge           Charge          ....    0
 Multiplicity           Mult            ....    1
 Number of Electrons    NEL             ....   18
 Basis Dimension        Dim             ....   36
 Nuclear Repulsion      ENuc            ....     23.8274866893 Eh

Convergence Acceleration:
 DIIS                   CNVDIIS         .... on
   Start iteration      DIISMaxIt       ....     0
   Startup error        DIISStart       ....  0.200000
   # of expansion vecs  DIISMaxEq       ....     5
   Bias factor          DIISBfac        ....   1.050
   Max. coefficient     DIISMaxC        ....  10.000
 Newton-Raphson         CNVNR           .... off
 SOSCF                  CNVSOSCF        .... off
 Level Shifting         CNVShift        .... off
 Zerner damping         CNVZerner       .... off
 Static damping         CNVDamp         .... off
 Fernandez-Rico         CNVRico         .... off

SCF Procedure:
 Maximum # iterations   MaxIter         ....   999
 SCF integral mode      SCFMode         .... Direct
   Integral package                     .... LIBINT
 Reset frequeny         DirectResetFreq ....    20
 Integral Threshold     Thresh          ....  1.000e-10 Eh
 Primitive CutOff       TCut            ....  1.000e-11 Eh

Convergence Tolerance:
 Convergence Check Mode ConvCheckMode   .... All-Criteria
 Convergence forced     ConvForced      .... 0
 Energy Change          TolE            ....  1.000e-06 Eh
 Max Density Change     TolMaxP         ....  1.000e-05
 RMS Density Change     TolRMSP         ....  1.000e-06
 DIIS Error             TolErr          ....  1.000e-06


Diagonalization of the overlap matrix:
Smallest eigenvalue                        ... 3.041e-02
Time for diagonalization                   ...    0.001 sec
Threshold for overlap eigenvalues          ... 1.000e-08
Number of eigenvalues below threshold      ... 0
Time for construction of square roots      ...    0.005 sec
Total time needed                          ...    0.006 sec

-------------------
DFT GRID GENERATION
-------------------

General Integration Accuracy     IntAcc      ...  4.340
Radial Grid Type                 RadialGrid  ... Gauss-Chebyshev
Angular Grid (max. acc.)         AngularGrid ... Lebedev-110
Angular grid pruning method      GridPruning ... 3 (G Style)
Weight generation scheme         WeightScheme... Becke
Basis function cutoff            BFCut       ...    1.0000e-10
Integration weight cutoff        WCut        ...    1.0000e-14
Grids for H and He will be reduced by one unit

# of grid points (after initial pruning)     ...   6548 (   0.0 sec)
# of grid points (after weights+screening)   ...   6401 (   0.0 sec)
nearest neighbour list constructed           ...    0.0 sec
Grid point re-assignment to atoms done       ...    0.0 sec
Grid point division into batches done        ...    0.0 sec
Reduced shell lists constructed in    0.0 sec

Total number of grid points                  ...     6401
Total number of batches                      ...      104
Average number of points per batch           ...       61
Average number of grid points per atom       ...     1067
Average number of shells per batch           ...    13.79 (68.95%)
Average number of basis functions per batch  ...    24.06 (66.83%)
Average number of large shells per batch     ...    11.00 (79.77%)
Average number of large basis fcns per batch ...    19.48 (80.96%)
Maximum spatial batch extension              ...  19.05, 20.95, 22.36 au
Average spatial batch extension              ...   4.66,  5.77,  5.72 au

Time for grid setup =    0.046 sec

------------------------------
INITIAL GUESS: MODEL POTENTIAL
------------------------------
Loading Hartree-Fock densities                     ... done
Calculating cut-offs                               ... done
Setting up the integral package                    ... done
Initializing the effective Hamiltonian             ... done
Starting the Coulomb interaction                   ... done (   0.0 sec)
Reading the grid                                   ... done
Mapping shells                                     ... done
Starting the XC term evaluation                    ... done (   0.0 sec)
  promolecular density results
     # of electrons  =     18.002911372
     EX              =    -14.307422802
     EC              =     -0.539826876
     EX+EC           =    -14.847249678
Transforming the Hamiltonian                       ... done (   0.0 sec)
Diagonalizing the Hamiltonian                      ... done (   0.0 sec)
Back transforming the eigenvectors                 ... done (   0.0 sec)
Now organizing SCF variables                       ... done
                      ------------------
                      INITIAL GUESS DONE (   0.2 sec)
                      ------------------
--------------
SCF ITERATIONS
--------------
ITER       Energy         Delta-E        Max-DP      RMS-DP      [F,P]   Gradient Norm
               ***  Starting incremental Fock matrix formation  ***
                             ****Resetting KDIIS****
                             ****Turning on KDIIS(Cayley)****
  0   -115.0762434463   0.000000000000 0.05937240  0.00391157  0.2604150   0.175759711
  1   -115.1592163277  -0.082972881435 0.05316090  0.00354641  0.2059907   0.137539314
  2   -115.2105558822  -0.051339554519 0.06202990  0.00484967  0.1570739   0.107103183
  3   -115.2587791468  -0.048223264593 0.08877566  0.00757340  0.0941630   0.066916382
  4   -115.2896818872  -0.030902740357 0.00040635  0.00004633  0.0159610   0.010809981
  5   -115.2896195164   0.000062370765 0.02944084  0.00302973  0.0161608   0.010919594
  6   -115.2889658322   0.000653684272 0.02429594  0.00253052  0.0164849   0.012735979
  7   -115.2911458560  -0.002180023819 0.00624428  0.00070437  0.0036793   0.002871532
  8   -115.2912674096  -0.000121553572 0.00400366  0.00040182  0.0008311   0.000603890
  9   -115.2912827928  -0.000015383206 0.00214112  0.00019782  0.0003912   0.000358949
 10   -115.2912913333  -0.000008540546 0.00086208  0.00010714  0.0005869   0.000346616
 11   -115.2912850625   0.000006270852 0.00102830  0.00009389  0.0003614   0.000335191
 12   -115.2912874570  -0.000002394534 0.00052423  0.00004878  0.0003612   0.000282064
 13   -115.2912859089   0.000001548040 0.00009622  0.00000826  0.0003415   0.000284390
                          ***Energy convergence achieved***
 14   -115.2912859816  -0.000000072681 0.00035483  0.00004109  0.0003749   0.000279909
 15   -115.2912863530  -0.000000371351 0.00148197  0.00014290  0.0003091   0.000275691
 16   -115.2912881052  -0.000001752190 0.00130105  0.00012045  0.0003284   0.000328076
 17   -115.2912907577  -0.000002652506 0.00095468  0.00009020  0.0003682   0.000225467
 18   -115.2912939407  -0.000003183012 0.00157826  0.00015463  0.0005237   0.000296853
 19   -115.2912881399   0.000005800759 0.00050100  0.00005978  0.0002476   0.000263849
               *** Restarting incremental Fock matrix formation ***
                             ****Resetting KDIIS****
                          ***Energy convergence achieved***
 20   -115.2912884563  -0.000000316370 0.00015699  0.00001416  0.0004027   0.000225548
 21   -115.2912889733  -0.000000517035 0.00013700  0.00001372  0.0004528   0.000228342
 22   -115.2912886815   0.000000291861 0.00046618  0.00004162  0.0003827   0.000196007
 23   -115.2912884642   0.000000217298 0.00195654  0.00015894  0.0002292   0.000160465
 24   -115.2912902218  -0.000001757639 0.00041819  0.00005175  0.0002405   0.000133950
                          ***Energy convergence achieved***
 25   -115.2912895431   0.000000678682 0.00096614  0.00008281  0.0001345   0.000127710
 26   -115.2912896496  -0.000000106435 0.00211977  0.00016256  0.0001088   0.000099899
 27   -115.2912901889  -0.000000539358 0.00025264  0.00002599  0.0001300   0.000096799
 28   -115.2912902573  -0.000000068388 0.00124808  0.00009612  0.0001062   0.000081006
 29   -115.2912905163  -0.000000258963 0.00048248  0.00003692  0.0000605   0.000033574
 30   -115.2912904578   0.000000058486 0.00019080  0.00001678  0.0000611   0.000036817
 31   -115.2912904515   0.000000006330 0.00027118  0.00002010  0.0000558   0.000031207

            ***Energy convergence in two consecutive cycles with***
                    ***'reasonable' density convergence***
                       *** signaling convergence ***

                    *** KDIIS BlockDiag ( 0.000 sec) ***

               *****************************************************
               *                     SUCCESS                       *
               *           SCF CONVERGED AFTER  32 CYCLES          *
               *****************************************************

Setting up the final grid:

General Integration Accuracy     IntAcc      ...  4.670
Radial Grid Type                 RadialGrid  ... Gauss-Chebyshev
Angular Grid (max. acc.)         AngularGrid ... Lebedev-302
Angular grid pruning method      GridPruning ... 3 (G Style)
Weight generation scheme         WeightScheme... Becke
Basis function cutoff            BFCut       ...    1.0000e-10
Integration weight cutoff        WCut        ...    1.0000e-14
Grids for H and He will be reduced by one unit

# of grid points (after initial pruning)     ...  26000 (   0.0 sec)
# of grid points (after weights+screening)   ...  25494 (   0.0 sec)
nearest neighbour list constructed           ...    0.0 sec
Grid point re-assignment to atoms done       ...    0.0 sec
Grid point division into batches done        ...    0.1 sec
Reduced shell lists constructed in    0.2 sec

Total number of grid points                  ...    25494
Total number of batches                      ...      401
Average number of points per batch           ...       63
Average number of grid points per atom       ...     4249
Average number of shells per batch           ...    12.36 (61.79%)
Average number of basis functions per batch  ...    21.55 (59.85%)
Average number of large shells per batch     ...     9.81 (79.39%)
Average number of large basis fcns per batch ...    17.34 (80.47%)
Maximum spatial batch extension              ...  21.01, 20.64, 20.64 au
Average spatial batch extension              ...   2.85,  3.36,  3.39 au

Final grid set up in    0.2 sec
Final integration                            ... done (   0.2 sec)
Change in XC energy                          ...    -0.000170931
Integrated number of electrons               ...    18.000004198
Previous integrated no of electrons          ...    17.994393432

----------------
TOTAL SCF ENERGY
----------------

Total Energy       :         -115.29146143 Eh           -3137.24016 eV

Components:
Nuclear Repulsion  :           23.82748669 Eh             648.37888 eV
Electronic Energy  :         -139.11894812 Eh           -3785.61904 eV
One Electron Energy:         -204.90235870 Eh           -5575.67664 eV
Two Electron Energy:           65.78341058 Eh            1790.05761 eV

Virial components:
Potential Energy   :         -230.10689766 Eh           -6261.52702 eV
Kinetic Energy     :          114.81543623 Eh            3124.28686 eV
Virial Ratio       :            2.00414600


DFT components:
N(Alpha)           :        9.000002098809 electrons
N(Beta)            :        9.000002098809 electrons
N(Total)           :       18.000004197617 electrons
E(XC)              :      -10.595756579707 Eh       

---------------
SCF CONVERGENCE
---------------

  Last Energy change         ...   -5.0236e-08  Tolerance :   1.0000e-06
  Last MAX-Density change    ...    8.8611e-05  Tolerance :   1.0000e-05
  Last RMS-Density change    ...    8.9672e-06  Tolerance :   1.0000e-06
  Last DIIS Error            ...    5.4235e-05  Tolerance :   1.0000e-06

             **** THE GBW FILE WAS UPDATED (Scan_39.gbw) ****
             **** DENSITY FILE WAS UPDATED (Scan_39.scfp.tmp) ****
             **** ENERGY FILE WAS UPDATED (Scan_39.en.tmp) ****
----------------
ORBITAL ENERGIES
----------------

  NO   OCC          E(Eh)            E(eV) 
   0   2.0000     -18.886640      -513.9316 
   1   2.0000     -10.610457      -288.7252 
   2   2.0000      -1.036540       -28.2057 
   3   2.0000      -0.768198       -20.9037 
   4   2.0000      -0.755451       -20.5569 
   5   2.0000      -0.721843       -19.6423 
   6   2.0000      -0.216607        -5.8942 
   7   2.0000      -0.060141        -1.6365 
   8   2.0000      -0.060129        -1.6362 
   9   0.0000      -0.253839        -6.9073 
  10   0.0000       0.059331         1.6145 
  11   0.0000       0.102965         2.8018 
  12   0.0000       0.152746         4.1564 
  13   0.0000       0.413066        11.2401 
  14   0.0000       0.444512        12.0958 
  15   0.0000       0.455521        12.3954 
  16   0.0000       0.468638        12.7523 
  17   0.0000       0.597879        16.2691 
  18   0.0000       0.810731        22.0611 
  19   0.0000       0.829067        22.5601 
  20   0.0000       0.889899        24.2154 
  21   0.0000       1.216223        33.0951 
  22   0.0000       1.290203        35.1082 
  23   0.0000       1.290238        35.1092 
  24   0.0000       1.357890        36.9501 
  25   0.0000       1.484546        40.3966 
  26   0.0000       1.485138        40.4127 
  27   0.0000       1.678751        45.6811 
  28   0.0000       1.889181        51.4072 
  29   0.0000       2.044364        55.6300 
  30   0.0000       2.046874        55.6983 
  31   0.0000       2.179165        59.2981 
  32   0.0000       2.179198        59.2990 
  33   0.0000       2.245627        61.1066 
  34   0.0000       2.245977        61.1161 
  35   0.0000       2.885231        78.5111 

                    ********************************
                    * MULLIKEN POPULATION ANALYSIS *
                    ********************************

-----------------------
MULLIKEN ATOMIC CHARGES
-----------------------
   0 C :   -0.102635
   1 O :   -1.226038
   2 H :    0.331444
   3 H :    0.331419
   4 H :    0.417962
   5 H :    0.247848
Sum of atomic charges:   -0.0000000

--------------------------------
MULLIKEN REDUCED ORBITAL CHARGES
--------------------------------
  0 C s       :     3.547214  s :     3.547214
      pz      :     0.549725  p :     2.532617
      px      :     1.317898
      py      :     0.664994
      dz2     :     0.001666  d :     0.022804
      dxz     :     0.004601
      dyz     :     0.005462
      dx2y2   :     0.005488
      dxy     :     0.005587
  1 O s       :     3.917660  s :     3.917660
      pz      :     1.998279  p :     5.295135
      px      :     1.298490
      py      :     1.998366
      dz2     :     0.002680  d :     0.013244
      dxz     :     0.001262
      dyz     :     0.000000
      dx2y2   :     0.008040
      dxy     :     0.001262
  2 H s       :     0.668556  s :     0.668556
  3 H s       :     0.668581  s :     0.668581
  4 H s       :     0.582038  s :     0.582038
  5 H s       :     0.752152  s :     0.752152


                     *******************************
                     * LOEWDIN POPULATION ANALYSIS *
                     *******************************

----------------------
LOEWDIN ATOMIC CHARGES
----------------------
   0 C :    0.255923
   1 O :   -1.175717
   2 H :    0.227818
   3 H :    0.227746
   4 H :    0.271617
   5 H :    0.192615

-------------------------------
LOEWDIN REDUCED ORBITAL CHARGES
-------------------------------
  0 C s       :     3.197230  s :     3.197230
      pz      :     0.556963  p :     2.513899
      px      :     1.283139
      py      :     0.673797
      dz2     :     0.002301  d :     0.032948
      dxz     :     0.007119
      dyz     :     0.006919
      dx2y2   :     0.007973
      dxy     :     0.008636
  1 O s       :     3.780553  s :     3.780553
      pz      :     1.998294  p :     5.375953
      px      :     1.379284
      py      :     1.998376
      dz2     :     0.004171  d :     0.019211
      dxz     :     0.001263
      dyz     :     0.000000
      dx2y2   :     0.012515
      dxy     :     0.001262
  2 H s       :     0.772182  s :     0.772182
  3 H s       :     0.772254  s :     0.772254
  4 H s       :     0.728383  s :     0.728383
  5 H s       :     0.807385  s :     0.807385


                      *****************************
                      * MAYER POPULATION ANALYSIS *
                      *****************************

  NA   - Mulliken gross atomic population
  ZA   - Total nuclear charge
  QA   - Mulliken gross atomic charge
  VA   - Mayer's total valence
  BVA  - Mayer's bonded valence
  FA   - Mayer's free valence

  ATOM       NA         ZA         QA         VA         BVA        FA
  0 C      6.1026     6.0000    -0.1026     2.5169     2.5169    -0.0000
  1 O      9.2260     8.0000    -1.2260     0.9193     0.9193     0.0000
  2 H      0.6686     1.0000     0.3314     0.8645     0.8645    -0.0000
  3 H      0.6686     1.0000     0.3314     0.8645     0.8645    -0.0000
  4 H      0.5820     1.0000     0.4180     0.8275     0.8275    -0.0000
  5 H      0.7522     1.0000     0.2478     0.8906     0.8906     0.0000

  Mayer bond orders larger than 0.1
B(  0-C ,  2-H ) :   0.8689 B(  0-C ,  3-H ) :   0.8689 B(  0-C ,  4-H ) :   0.7844 
B(  1-O ,  5-H ) :   0.8834 

-------
TIMINGS
-------

Total SCF time: 0 days 0 hours 0 min 11 sec 

Total time                  ....      11.125 sec
Sum of individual times     ....      10.716 sec  ( 96.3%)

Fock matrix formation       ....      10.276 sec  ( 92.4%)
  XC integration            ....       2.519 sec  ( 24.5% of F)
    Basis function eval.    ....       0.767 sec  ( 30.5% of XC)
    Density eval.           ....       0.116 sec  (  4.6% of XC)
    XC-Functional eval.     ....       0.720 sec  ( 28.6% of XC)
    XC-Potential eval.      ....       0.067 sec  (  2.7% of XC)
Diagonalization             ....       0.024 sec  (  0.2%)
Density matrix formation    ....       0.000 sec  (  0.0%)
Population analysis         ....       0.010 sec  (  0.1%)
Initial guess               ....       0.150 sec  (  1.3%)
Orbital Transformation      ....       0.000 sec  (  0.0%)
Orbital Orthonormalization  ....       0.000 sec  (  0.0%)
DIIS solution               ....       0.000 sec  (  0.0%)
Grid generation             ....       0.256 sec  (  2.3%)


-------------------------------------------------------------------------------
                          DFT DISPERSION CORRECTION                            
                                                                               
                              DFTD3 V3.1  Rev 1                                
                              USING zero damping                               
-------------------------------------------------------------------------------
The omegaB97X-D3 functional is recognized. Fit by Chai et al.
Active option DFTDOPT                   ...         3   

molecular C6(AA) [au] = 243.649758 


            DFT-D V3
 parameters
 s6 scaling factor         :     1.0000 
 rs6 scaling factor        :     1.2810 
 s8 scaling factor         :     1.0000 
 rs8 scaling factor        :     1.0940 
 Damping factor alpha6     :    14.0000 
 Damping factor alpha8     :    16.0000 
 ad hoc parameters k1-k3   :    16.0000     1.3333    -4.0000 

 Edisp/kcal,au: -0.149227853546  -0.000237809697 
 E6   /kcal   :  -0.099004182 
 E8   /kcal   :  -0.050223672 
 % E8         :  33.655695239 

-------------------------   ----------------
Dispersion correction           -0.000237810
-------------------------   ----------------


-------------------------   --------------------
FINAL SINGLE POINT ENERGY      -115.291699242706
-------------------------   --------------------


                            ***************************************
                            *     ORCA property calculations      *
                            ***************************************

                                    ---------------------
                                    Active property flags
                                    ---------------------
   (+) Dipole Moment


------------------------------------------------------------------------------
                       ORCA ELECTRIC PROPERTIES CALCULATION
------------------------------------------------------------------------------

Dipole Moment Calculation                       ... on
Quadrupole Moment Calculation                   ... off
Polarizability Calculation                      ... off
GBWName                                         ... Scan_39.gbw
Electron density file                           ... Scan_39.scfp.tmp

-------------
DIPOLE MOMENT
-------------
                                X             Y             Z
Electronic contribution:     -3.73622       0.05416       0.07970
Nuclear contribution   :     -3.80091       0.07288       0.10085
                        -----------------------------------------
Total Dipole Moment    :     -7.53713       0.12704       0.18055
                        -----------------------------------------
Magnitude (a.u.)       :      7.54036
Magnitude (Debye)      :     19.16607


Timings for individual modules:

Sum of individual times         ...       11.574 sec (=   0.193 min)
GTO integral calculation        ...        0.410 sec (=   0.007 min)   3.5 %
SCF iterations                  ...       11.163 sec (=   0.186 min)  96.5 %
                             ****ORCA TERMINATED NORMALLY****
TOTAL RUN TIME: 0 days 0 hours 0 minutes 11 seconds 950 msec
