
                                 *****************
                                 * O   R   C   A *
                                 *****************

           --- An Ab Initio, DFT and Semiempirical electronic structure package ---

                  #######################################################
                  #                        -***-                        #
                  #  Department of molecular theory and spectroscopy    #
                  #              Directorship: Frank Neese              #
                  # Max Planck Institute for Chemical Energy Conversion #
                  #                  D-45470 Muelheim/Ruhr              #
                  #                       Germany                       #
                  #                                                     #
                  #                  All rights reserved                #
                  #                        -***-                        #
                  #######################################################


                         Program Version 4.0.0.2 - RELEASE -


 With contributions from (in alphabetic order):
   Daniel Aravena         : Magnetic Properties
   Michael Atanasov       : Ab Initio Ligand Field Theory
   Ute Becker             : Parallelization
   Martin Brehm           : Molecular dynamics
   Dmytro Bykov           : SCF Hessian
   Vijay G. Chilkuri      : MRCI spin determinant printing
   Dipayan Datta          : RHF DLPNO-CCSD density
   Achintya Kumar Dutta   : EOM-CC, STEOM-CC
   Dmitry Ganyushin       : Spin-Orbit,Spin-Spin,Magnetic field MRCI
   Yang Guo               : DLPNO-NEVPT2, CIM, IAO-localization
   Andreas Hansen         : Spin unrestricted coupled pair/coupled cluster methods
   Lee Huntington         : MR-EOM, pCC
   Robert Izsak           : Overlap fitted RIJCOSX, COSX-SCS-MP3, EOM
   Christian Kollmar      : KDIIS, OOCD, Brueckner-CCSD(T), CCSD density
   Simone Kossmann        : Meta GGA functionals, TD-DFT gradient, OOMP2, MP2 Hessian
   Martin Krupicka        : AUTO-CI
   Dagmar Lenk            : GEPOL surface
   Dimitrios Liakos       : Extrapolation schemes; parallel MDCI
   Dimitrios Manganas     : ROCIS; embedding schemes
   Dimitrios Pantazis     : SARC Basis sets
   Taras Petrenko         : DFT Hessian,TD-DFT gradient, ASA, ECA, R-Raman, ABS, FL, XAS/XES, NRVS
   Peter Pinski           : DLPNO-MP2
   Christoph Reimann      : Effective Core Potentials
   Marius Retegan         : Local ZFS, SOC
   Christoph Riplinger    : Optimizer, TS searches, QM/MM, DLPNO-CCSD(T), (RO)-DLPNO pert. Triples
   Tobias Risthaus        : Range-separated hybrids, TD-DFT gradient, RPA, STAB
   Michael Roemelt        : Restricted open shell CIS
   Masaaki Saitow         : Open-shell DLPNO
   Barbara Sandhoefer     : DKH picture change effects
   Kantharuban Sivalingam : CASSCF convergence, NEVPT2, FIC-MRCI
   Georgi Stoychev        : AutoAux
   Boris Wezisla          : Elementary symmetry handling
   Frank Wennmohs         : Technical directorship


 We gratefully acknowledge several colleagues who have allowed us to
 interface, adapt or use parts of their codes:
   Stefan Grimme, W. Hujo, H. Kruse,             : VdW corrections, initial TS optimization,
                  C. Bannwarth                     DFT functionals, gCP, sTDA/sTD-DF
   Ed Valeev                                     : LibInt (2-el integral package), F12 methods
   Garnet Chan, S. Sharma, J. Yang, R. Olivares  : DMRG
   Ulf Ekstrom                                   : XCFun DFT Library
   Mihaly Kallay                                 : mrcc  (arbitrary order and MRCC methods)
   Jiri Pittner, Ondrej Demel                    : Mk-CCSD
   Frank Weinhold                                : gennbo (NPA and NBO analysis)
   Christopher J. Cramer and Donald G. Truhlar   : smd solvation model


 Your calculation uses the libint2 library for the computation of 2-el integrals
 For citations please refer to: http://libint.valeyev.net

 This ORCA versions uses:
   CBLAS   interface :  Fast vector & matrix operations
   LAPACKE interface :  Fast linear algebra routines
   SCALAPACK package :  Parallel linear algebra routines


Your calculation utilizes the atom-pairwise dispersion correction
with the zero-damping scheme (D30)
Cite in your paper:
S.Grimme, J.Antony, S.Ehrlich and H.Krieg, J.Chem.Phys., 132, (2010), 154104 
   

XCFun DFT library Copyright 2009-2010 Ulf Ekstrom and contributors.
See http://admol.org/xcfun for more information. This is free soft-
ware; see the source code for copying conditions. There is ABSOLUTELY
NO WARRANTY; not even for MERCHANTABILITY or FITNESS FOR A PARTICULAR
PURPOSE. For details see the documentation. Scientific users of this 
library should cite U. Ekstrom, L. Visscher, R. Bast, A. J. Thorvald-
sen and K. Ruud; J.Chem.Theor.Comp. 2010, DOI: 10.1021/ct100117s
XCFun Version 0.99 
Your calculation utilizes the basis: 6-31G(d)
   H-He, Li-Ne : W. J. Hehre, R. Ditchfield and J.A. Pople, J. Chem. Phys. 56, 2257 (1972).
                 Note: He and Ne are unpublished basis sets taken from the Gaussian program.
                 Note: Li and B from J. D. Dill and J. A. Pople, J. Chem. Phys. 62, 2921 (1975).
   Na - Ar     : M. M. Francl, W. J. Pietro, W. J. Hehre, J. S. Binkley, M. S. Gordon, 
                 D. J. DeFrees and J. A. Pople, J. Chem. Phys. 77, 3654 (1982).
   K - Zn      : V. A. Rassolov, J. A. Pople, M. A. Ratner, and T. L. Windus, J. Chem. Phys. 109, 1223 (1998).

================================================================================
                                        WARNINGS
                       Please study these warnings very carefully!
================================================================================

Warning: TCutStore was < 0. Adjusted to Thresh (uncritical)

INFO   : the flag for use of LIBINT has been found!

================================================================================
                                       INPUT FILE
================================================================================
NAME = initial41.inp
|  1> ! WB97X-D3 6-31G(d) VerySlowConv
|  2> ! KDIIS NOSOSCF
|  3> %base "Scan_41"
|  4> 
|  5> %scf
|  6> maxiter 999
|  7> end
|  8> 
|  9> * xyz 0 1
| 10> C         -5.337055471143    2.439888300101    0.149112670431
| 11> O         -0.749340320941    2.367501328213    0.044502670713
| 12> H         -5.875114970821    3.137286584575   -0.458885051870
| 13> H         -5.868365860630    1.764867423618    0.787540176117
| 14> H         -4.265861817121    2.417378074677    0.118526408194
| 15> H          0.208628440656    2.364708288817    0.036203126416
| 16> **                         ****END OF INPUT****
================================================================================

                       ****************************
                       * Single Point Calculation *
                       ****************************

---------------------------------
CARTESIAN COORDINATES (ANGSTROEM)
---------------------------------
  C     -5.337055    2.439888    0.149113
  O     -0.749340    2.367501    0.044503
  H     -5.875115    3.137287   -0.458885
  H     -5.868366    1.764867    0.787540
  H     -4.265862    2.417378    0.118526
  H      0.208628    2.364708    0.036203

----------------------------
CARTESIAN COORDINATES (A.U.)
----------------------------
  NO LB      ZA    FRAG     MASS         X           Y           Z
   0 C     6.0000    0    12.011  -10.085573    4.610721    0.281782
   1 O     8.0000    0    15.999   -1.416048    4.473929    0.084098
   2 H     1.0000    0     1.008  -11.102358    5.928612   -0.867167
   3 H     1.0000    0     1.008  -11.089604    3.335116    1.488235
   4 H     1.0000    0     1.008   -8.061311    4.568183    0.223982
   5 H     1.0000    0     1.008    0.394251    4.468651    0.068414

--------------------------------
INTERNAL COORDINATES (ANGSTROEM)
--------------------------------
 C      0   0   0     0.000000000000     0.00000000     0.00000000
 O      1   0   0     4.589478556997     0.00000000     0.00000000
 H      1   2   0     1.070296044421   119.99048153     0.00000000
 H      1   2   3     1.070296030863   119.99156312   180.50517019
 H      1   2   3     1.071866630744     0.44517433    90.32059948
 H      2   1   3     0.958008784772   178.90523287    89.69786250

---------------------------
INTERNAL COORDINATES (A.U.)
---------------------------
 C      0   0   0     0.000000000000     0.00000000     0.00000000
 O      1   0   0     8.672857570228     0.00000000     0.00000000
 H      1   2   0     2.022566406176   119.99048153     0.00000000
 H      1   2   3     2.022566380554   119.99156312   180.50517019
 H      1   2   3     2.025534384196     0.44517433    90.32059948
 H      2   1   3     1.810374237110   178.90523287    89.69786250

---------------------
BASIS SET INFORMATION
---------------------
There are 3 groups of distinct atoms

 Group   1 Type C   : 10s4p1d contracted to 3s2p1d pattern {631/31/1}
 Group   2 Type O   : 10s4p1d contracted to 3s2p1d pattern {631/31/1}
 Group   3 Type H   : 4s contracted to 2s pattern {31}

Atom   0C    basis set group =>   1
Atom   1O    basis set group =>   2
Atom   2H    basis set group =>   3
Atom   3H    basis set group =>   3
Atom   4H    basis set group =>   3
Atom   5H    basis set group =>   3
------------------------------------------------------------------------------
                           ORCA GTO INTEGRAL CALCULATION
------------------------------------------------------------------------------

                         BASIS SET STATISTICS AND STARTUP INFO

 # of primitive gaussian shells          ...   46
 # of primitive gaussian functions       ...   70
 # of contracted shells                  ...   20
 # of contracted basis functions         ...   36
 Highest angular momentum                ...    2
 Maximum contraction depth               ...    6
 Integral package used                   ... LIBINT
 Integral threshhold            Thresh   ...  1.000e-10
 Primitive cut-off              TCut     ...  1.000e-11


------------------------------ INTEGRAL EVALUATION ----------------------------


 * One electron integrals 
 Pre-screening matrix                    ... done
 Shell pair data                         ... done (   0.000 sec)

-------------------------------------------------------------------------------
                                 ORCA SCF
-------------------------------------------------------------------------------

------------
SCF SETTINGS
------------
Hamiltonian:
 Density Functional     Method          .... DFT(GTOs)
 Exchange Functional    Exchange        .... WB97X-D3
 Correlation Functional Correlation     .... WB97X-D3
 Gradients option       PostSCFGGA      .... off
 Hybrid DFT is turned on
   Fraction HF Exchange ScalHFX         ....  0.195728
   Scaling of DF-GGA-X  ScalDFX         ....  0.000000
   Scaling of DF-GGA-C  ScalDFC         ....  1.000000
   Scaling of DF-LDA-C  ScalLDAC        ....  1.000000
   Perturbative correction              ....  0.000000
 Long-range corrected/Screened/Range-Separated Hybrid DFT is turned on
   Amount of maximum screened exact exchange              ....  0.804272
   Range separation parameter mu (erf(mu*r12)/r12)        ....  0.250000


General Settings:
 Integral files         IntName         .... Scan_41
 Hartree-Fock type      HFTyp           .... RHF
 Total Charge           Charge          ....    0
 Multiplicity           Mult            ....    1
 Number of Electrons    NEL             ....   18
 Basis Dimension        Dim             ....   36
 Nuclear Repulsion      ENuc            ....     23.3966019771 Eh

Convergence Acceleration:
 DIIS                   CNVDIIS         .... on
   Start iteration      DIISMaxIt       ....     0
   Startup error        DIISStart       ....  0.200000
   # of expansion vecs  DIISMaxEq       ....     5
   Bias factor          DIISBfac        ....   1.050
   Max. coefficient     DIISMaxC        ....  10.000
 Newton-Raphson         CNVNR           .... off
 SOSCF                  CNVSOSCF        .... off
 Level Shifting         CNVShift        .... off
 Zerner damping         CNVZerner       .... off
 Static damping         CNVDamp         .... off
 Fernandez-Rico         CNVRico         .... off

SCF Procedure:
 Maximum # iterations   MaxIter         ....   999
 SCF integral mode      SCFMode         .... Direct
   Integral package                     .... LIBINT
 Reset frequeny         DirectResetFreq ....    20
 Integral Threshold     Thresh          ....  1.000e-10 Eh
 Primitive CutOff       TCut            ....  1.000e-11 Eh

Convergence Tolerance:
 Convergence Check Mode ConvCheckMode   .... All-Criteria
 Convergence forced     ConvForced      .... 0
 Energy Change          TolE            ....  1.000e-06 Eh
 Max Density Change     TolMaxP         ....  1.000e-05
 RMS Density Change     TolRMSP         ....  1.000e-06
 DIIS Error             TolErr          ....  1.000e-06


Diagonalization of the overlap matrix:
Smallest eigenvalue                        ... 3.053e-02
Time for diagonalization                   ...    0.001 sec
Threshold for overlap eigenvalues          ... 1.000e-08
Number of eigenvalues below threshold      ... 0
Time for construction of square roots      ...    0.005 sec
Total time needed                          ...    0.006 sec

-------------------
DFT GRID GENERATION
-------------------

General Integration Accuracy     IntAcc      ...  4.340
Radial Grid Type                 RadialGrid  ... Gauss-Chebyshev
Angular Grid (max. acc.)         AngularGrid ... Lebedev-110
Angular grid pruning method      GridPruning ... 3 (G Style)
Weight generation scheme         WeightScheme... Becke
Basis function cutoff            BFCut       ...    1.0000e-10
Integration weight cutoff        WCut        ...    1.0000e-14
Grids for H and He will be reduced by one unit

# of grid points (after initial pruning)     ...   6548 (   0.0 sec)
# of grid points (after weights+screening)   ...   6408 (   0.0 sec)
nearest neighbour list constructed           ...    0.0 sec
Grid point re-assignment to atoms done       ...    0.0 sec
Grid point division into batches done        ...    0.0 sec
Reduced shell lists constructed in    0.0 sec

Total number of grid points                  ...     6408
Total number of batches                      ...      104
Average number of points per batch           ...       61
Average number of grid points per atom       ...     1068
Average number of shells per batch           ...    13.57 (67.86%)
Average number of basis functions per batch  ...    23.61 (65.58%)
Average number of large shells per batch     ...    10.74 (79.16%)
Average number of large basis fcns per batch ...    19.14 (81.08%)
Maximum spatial batch extension              ...  19.05, 20.95, 22.36 au
Average spatial batch extension              ...   4.59,  5.75,  5.77 au

Time for grid setup =    0.044 sec

------------------------------
INITIAL GUESS: MODEL POTENTIAL
------------------------------
Loading Hartree-Fock densities                     ... done
Calculating cut-offs                               ... done
Setting up the integral package                    ... done
Initializing the effective Hamiltonian             ... done
Starting the Coulomb interaction                   ... done (   0.0 sec)
Reading the grid                                   ... done
Mapping shells                                     ... done
Starting the XC term evaluation                    ... done (   0.0 sec)
  promolecular density results
     # of electrons  =     18.002962458
     EX              =    -14.307344230
     EC              =     -0.539778006
     EX+EC           =    -14.847122236
Transforming the Hamiltonian                       ... done (   0.0 sec)
Diagonalizing the Hamiltonian                      ... done (   0.0 sec)
Back transforming the eigenvectors                 ... done (   0.0 sec)
Now organizing SCF variables                       ... done
                      ------------------
                      INITIAL GUESS DONE (   0.2 sec)
                      ------------------
--------------
SCF ITERATIONS
--------------
ITER       Energy         Delta-E        Max-DP      RMS-DP      [F,P]   Gradient Norm
               ***  Starting incremental Fock matrix formation  ***
                             ****Resetting KDIIS****
                             ****Turning on KDIIS(Cayley)****
  0   -115.0692303154   0.000000000000 0.06036823  0.00396967  0.2577870   0.175816109
  1   -115.1530213649  -0.083791049488 0.05154297  0.00341346  0.2033360   0.137198051
  2   -115.2035625679  -0.050541202981 0.06126743  0.00459023  0.1559757   0.107010933
  3   -115.2509527425  -0.047390174631 0.08668583  0.00724186  0.0947786   0.067316583
  4   -115.2822368599  -0.031284117404 0.00605941  0.00072091  0.0139048   0.009881344
  5   -115.2811906403   0.001046219644 0.01517823  0.00154405  0.0170502   0.012136239
  6   -115.2826778950  -0.001487254681 0.01885644  0.00165922  0.0106283   0.008113332
  7   -115.2835112551  -0.000833360154 0.01048385  0.00083710  0.0042335   0.003191117
  8   -115.2836717150  -0.000160459903 0.00296445  0.00028879  0.0008011   0.000553644
  9   -115.2836820237  -0.000010308672 0.00275723  0.00028220  0.0004418   0.000318743
 10   -115.2836881414  -0.000006117726 0.00078517  0.00008487  0.0002497   0.000225693
 11   -115.2836900348  -0.000001893410 0.00038107  0.00005442  0.0002541   0.000201315
                          ***Energy convergence achieved***
 12   -115.2836892727   0.000000762143 0.00048950  0.00005453  0.0001882   0.000179333
 13   -115.2836902397  -0.000000966972 0.00047863  0.00005267  0.0002131   0.000174224
 14   -115.2836893495   0.000000890177 0.00051151  0.00005613  0.0002351   0.000219614
 15   -115.2836900698  -0.000000720345 0.00065982  0.00006827  0.0002964   0.000177448
 16   -115.2836891986   0.000000871198 0.00031114  0.00003276  0.0002157   0.000152036
 17   -115.2836887540   0.000000444635 0.00102952  0.00010017  0.0001758   0.000133359
 18   -115.2836896641  -0.000000910093 0.00208032  0.00019212  0.0001621   0.000117428
 19   -115.2836911478  -0.000001483731 0.00043590  0.00003594  0.0001190   0.000103445
               *** Restarting incremental Fock matrix formation ***
                             ****Resetting KDIIS****
                          ***Energy convergence achieved***
 20   -115.2836914994  -0.000000351605 0.00010277  0.00000771  0.0001182   0.000086110

            ***Energy convergence in two consecutive cycles with***
                    ***'reasonable' density convergence***
                       *** signaling convergence ***

                    *** KDIIS BlockDiag ( 0.000 sec) ***

               *****************************************************
               *                     SUCCESS                       *
               *           SCF CONVERGED AFTER  21 CYCLES          *
               *****************************************************

Setting up the final grid:

General Integration Accuracy     IntAcc      ...  4.670
Radial Grid Type                 RadialGrid  ... Gauss-Chebyshev
Angular Grid (max. acc.)         AngularGrid ... Lebedev-302
Angular grid pruning method      GridPruning ... 3 (G Style)
Weight generation scheme         WeightScheme... Becke
Basis function cutoff            BFCut       ...    1.0000e-10
Integration weight cutoff        WCut        ...    1.0000e-14
Grids for H and He will be reduced by one unit

# of grid points (after initial pruning)     ...  26000 (   0.0 sec)
# of grid points (after weights+screening)   ...  25509 (   0.0 sec)
nearest neighbour list constructed           ...    0.0 sec
Grid point re-assignment to atoms done       ...    0.0 sec
Grid point division into batches done        ...    0.1 sec
Reduced shell lists constructed in    0.2 sec

Total number of grid points                  ...    25509
Total number of batches                      ...      401
Average number of points per batch           ...       63
Average number of grid points per atom       ...     4252
Average number of shells per batch           ...    12.10 (60.52%)
Average number of basis functions per batch  ...    21.04 (58.44%)
Average number of large shells per batch     ...     9.61 (79.41%)
Average number of large basis fcns per batch ...    17.07 (81.13%)
Maximum spatial batch extension              ...  21.40, 20.64, 20.64 au
Average spatial batch extension              ...   2.88,  3.43,  3.43 au

Final grid set up in    0.2 sec
Final integration                            ... done (   0.2 sec)
Change in XC energy                          ...    -0.000191611
Integrated number of electrons               ...    17.999996095
Previous integrated no of electrons          ...    17.995152400

----------------
TOTAL SCF ENERGY
----------------

Total Energy       :         -115.28388319 Eh           -3137.03395 eV

Components:
Nuclear Repulsion  :           23.39660198 Eh             636.65391 eV
Electronic Energy  :         -138.68048517 Eh           -3773.68785 eV
One Electron Energy:         -204.04734036 Eh           -5552.41041 eV
Two Electron Energy:           65.36685519 Eh            1778.72256 eV

Virial components:
Potential Energy   :         -230.10723566 Eh           -6261.53621 eV
Kinetic Energy     :          114.82335247 Eh            3124.50227 eV
Virial Ratio       :            2.00401078


DFT components:
N(Alpha)           :        8.999998047327 electrons
N(Beta)            :        8.999998047327 electrons
N(Total)           :       17.999996094654 electrons
E(XC)              :      -10.597901793494 Eh       

---------------
SCF CONVERGENCE
---------------

  Last Energy change         ...   -7.8587e-08  Tolerance :   1.0000e-06
  Last MAX-Density change    ...    4.2355e-05  Tolerance :   1.0000e-05
  Last RMS-Density change    ...    3.9135e-06  Tolerance :   1.0000e-06
  Last DIIS Error            ...    1.1822e-04  Tolerance :   1.0000e-06

             **** THE GBW FILE WAS UPDATED (Scan_41.gbw) ****
             **** DENSITY FILE WAS UPDATED (Scan_41.scfp.tmp) ****
             **** ENERGY FILE WAS UPDATED (Scan_41.en.tmp) ****
----------------
ORBITAL ENERGIES
----------------

  NO   OCC          E(Eh)            E(eV) 
   0   2.0000     -18.878008      -513.6967 
   1   2.0000     -10.617931      -288.9286 
   2   2.0000      -1.043770       -28.4024 
   3   2.0000      -0.774893       -21.0859 
   4   2.0000      -0.763639       -20.7797 
   5   2.0000      -0.713854       -19.4249 
   6   2.0000      -0.207919        -5.6578 
   7   2.0000      -0.052152        -1.4191 
   8   2.0000      -0.052151        -1.4191 
   9   0.0000      -0.260771        -7.0959 
  10   0.0000       0.053510         1.4561 
  11   0.0000       0.097340         2.6488 
  12   0.0000       0.140994         3.8366 
  13   0.0000       0.418492        11.3878 
  14   0.0000       0.437982        11.9181 
  15   0.0000       0.448242        12.1973 
  16   0.0000       0.461991        12.5714 
  17   0.0000       0.590838        16.0775 
  18   0.0000       0.804614        21.8947 
  19   0.0000       0.822395        22.3785 
  20   0.0000       0.884329        24.0638 
  21   0.0000       1.222539        33.2670 
  22   0.0000       1.297864        35.3167 
  23   0.0000       1.297887        35.3173 
  24   0.0000       1.343343        36.5542 
  25   0.0000       1.477404        40.2022 
  26   0.0000       1.477819        40.2135 
  27   0.0000       1.685475        45.8641 
  28   0.0000       1.882042        51.2130 
  29   0.0000       2.037350        55.4391 
  30   0.0000       2.039458        55.4965 
  31   0.0000       2.187395        59.5220 
  32   0.0000       2.187416        59.5226 
  33   0.0000       2.253546        61.3221 
  34   0.0000       2.253904        61.3319 
  35   0.0000       2.892515        78.7093 

                    ********************************
                    * MULLIKEN POPULATION ANALYSIS *
                    ********************************

-----------------------
MULLIKEN ATOMIC CHARGES
-----------------------
   0 C :   -0.100884
   1 O :   -1.227829
   2 H :    0.334668
   3 H :    0.334644
   4 H :    0.418906
   5 H :    0.240495
Sum of atomic charges:   -0.0000000

--------------------------------
MULLIKEN REDUCED ORBITAL CHARGES
--------------------------------
  0 C s       :     3.546508  s :     3.546508
      pz      :     0.551709  p :     2.531545
      px      :     1.312381
      py      :     0.667455
      dz2     :     0.001691  d :     0.022832
      dxz     :     0.004558
      dyz     :     0.005473
      dx2y2   :     0.005574
      dxy     :     0.005535
  1 O s       :     3.920666  s :     3.920666
      pz      :     1.998442  p :     5.293722
      px      :     1.296762
      py      :     1.998519
      dz2     :     0.002718  d :     0.013441
      dxz     :     0.001284
      dyz     :     0.000000
      dx2y2   :     0.008156
      dxy     :     0.001283
  2 H s       :     0.665332  s :     0.665332
  3 H s       :     0.665356  s :     0.665356
  4 H s       :     0.581094  s :     0.581094
  5 H s       :     0.759505  s :     0.759505


                     *******************************
                     * LOEWDIN POPULATION ANALYSIS *
                     *******************************

----------------------
LOEWDIN ATOMIC CHARGES
----------------------
   0 C :    0.258779
   1 O :   -1.176986
   2 H :    0.229551
   3 H :    0.229483
   4 H :    0.272057
   5 H :    0.187116

-------------------------------
LOEWDIN REDUCED ORBITAL CHARGES
-------------------------------
  0 C s       :     3.195776  s :     3.195776
      pz      :     0.557958  p :     2.512512
      px      :     1.279502
      py      :     0.675053
      dz2     :     0.002329  d :     0.032933
      dxz     :     0.007051
      dyz     :     0.006918
      dx2y2   :     0.008081
      dxy     :     0.008554
  1 O s       :     3.784150  s :     3.784150
      pz      :     1.998452  p :     5.373252
      px      :     1.376276
      py      :     1.998523
      dz2     :     0.004253  d :     0.019584
      dxz     :     0.001286
      dyz     :     0.000000
      dx2y2   :     0.012762
      dxy     :     0.001283
  2 H s       :     0.770449  s :     0.770449
  3 H s       :     0.770517  s :     0.770517
  4 H s       :     0.727943  s :     0.727943
  5 H s       :     0.812884  s :     0.812884


                      *****************************
                      * MAYER POPULATION ANALYSIS *
                      *****************************

  NA   - Mulliken gross atomic population
  ZA   - Total nuclear charge
  QA   - Mulliken gross atomic charge
  VA   - Mayer's total valence
  BVA  - Mayer's bonded valence
  FA   - Mayer's free valence

  ATOM       NA         ZA         QA         VA         BVA        FA
  0 C      6.1009     6.0000    -0.1009     2.5277     2.5277    -0.0000
  1 O      9.2278     8.0000    -1.2278     0.9096     0.9096    -0.0000
  2 H      0.6653     1.0000     0.3347     0.8627     0.8627     0.0000
  3 H      0.6654     1.0000     0.3346     0.8627     0.8627    -0.0000
  4 H      0.5811     1.0000     0.4189     0.8192     0.8192    -0.0000
  5 H      0.7595     1.0000     0.2405     0.8932     0.8932    -0.0000

  Mayer bond orders larger than 0.1
B(  0-C ,  2-H ) :   0.8674 B(  0-C ,  3-H ) :   0.8674 B(  0-C ,  4-H ) :   0.7959 
B(  1-O ,  5-H ) :   0.8888 

-------
TIMINGS
-------

Total SCF time: 0 days 0 hours 0 min 6 sec 

Total time                  ....       6.688 sec
Sum of individual times     ....       6.364 sec  ( 95.2%)

Fock matrix formation       ....       5.934 sec  ( 88.7%)
  XC integration            ....       1.828 sec  ( 30.8% of F)
    Basis function eval.    ....       0.538 sec  ( 29.4% of XC)
    Density eval.           ....       0.081 sec  (  4.4% of XC)
    XC-Functional eval.     ....       0.521 sec  ( 28.5% of XC)
    XC-Potential eval.      ....       0.047 sec  (  2.6% of XC)
Diagonalization             ....       0.027 sec  (  0.4%)
Density matrix formation    ....       0.000 sec  (  0.0%)
Population analysis         ....       0.010 sec  (  0.2%)
Initial guess               ....       0.139 sec  (  2.1%)
Orbital Transformation      ....       0.000 sec  (  0.0%)
Orbital Orthonormalization  ....       0.000 sec  (  0.0%)
DIIS solution               ....       0.000 sec  (  0.0%)
Grid generation             ....       0.254 sec  (  3.8%)


-------------------------------------------------------------------------------
                          DFT DISPERSION CORRECTION                            
                                                                               
                              DFTD3 V3.1  Rev 1                                
                              USING zero damping                               
-------------------------------------------------------------------------------
The omegaB97X-D3 functional is recognized. Fit by Chai et al.
Active option DFTDOPT                   ...         3   

molecular C6(AA) [au] = 243.649751 


            DFT-D V3
 parameters
 s6 scaling factor         :     1.0000 
 rs6 scaling factor        :     1.2810 
 s8 scaling factor         :     1.0000 
 rs8 scaling factor        :     1.0940 
 Damping factor alpha6     :    14.0000 
 Damping factor alpha8     :    16.0000 
 ad hoc parameters k1-k3   :    16.0000     1.3333    -4.0000 

 Edisp/kcal,au: -0.118233648262  -0.000188417292 
 E6   /kcal   :  -0.082029656 
 E8   /kcal   :  -0.036203992 
 % E8         :  30.620718071 

-------------------------   ----------------
Dispersion correction           -0.000188417
-------------------------   ----------------


-------------------------   --------------------
FINAL SINGLE POINT ENERGY      -115.284071606423
-------------------------   --------------------


                            ***************************************
                            *     ORCA property calculations      *
                            ***************************************

                                    ---------------------
                                    Active property flags
                                    ---------------------
   (+) Dipole Moment


------------------------------------------------------------------------------
                       ORCA ELECTRIC PROPERTIES CALCULATION
------------------------------------------------------------------------------

Dipole Moment Calculation                       ... on
Quadrupole Moment Calculation                   ... off
Polarizability Calculation                      ... off
GBWName                                         ... Scan_41.gbw
Electron density file                           ... Scan_41.scfp.tmp

-------------
DIPOLE MOMENT
-------------
                                X             Y             Z
Electronic contribution:     -3.98270       0.05795       0.08521
Nuclear contribution   :     -4.01533       0.07337       0.10257
                        -----------------------------------------
Total Dipole Moment    :     -7.99804       0.13132       0.18778
                        -----------------------------------------
Magnitude (a.u.)       :      8.00132
Magnitude (Debye)      :     20.33774


Timings for individual modules:

Sum of individual times         ...        7.056 sec (=   0.118 min)
GTO integral calculation        ...        0.327 sec (=   0.005 min)   4.6 %
SCF iterations                  ...        6.729 sec (=   0.112 min)  95.4 %
                             ****ORCA TERMINATED NORMALLY****
TOTAL RUN TIME: 0 days 0 hours 0 minutes 7 seconds 410 msec
