
                                 *****************
                                 * O   R   C   A *
                                 *****************

           --- An Ab Initio, DFT and Semiempirical electronic structure package ---

                  #######################################################
                  #                        -***-                        #
                  #  Department of molecular theory and spectroscopy    #
                  #              Directorship: Frank Neese              #
                  # Max Planck Institute for Chemical Energy Conversion #
                  #                  D-45470 Muelheim/Ruhr              #
                  #                       Germany                       #
                  #                                                     #
                  #                  All rights reserved                #
                  #                        -***-                        #
                  #######################################################


                         Program Version 4.0.0.2 - RELEASE -


 With contributions from (in alphabetic order):
   Daniel Aravena         : Magnetic Properties
   Michael Atanasov       : Ab Initio Ligand Field Theory
   Ute Becker             : Parallelization
   Martin Brehm           : Molecular dynamics
   Dmytro Bykov           : SCF Hessian
   Vijay G. Chilkuri      : MRCI spin determinant printing
   Dipayan Datta          : RHF DLPNO-CCSD density
   Achintya Kumar Dutta   : EOM-CC, STEOM-CC
   Dmitry Ganyushin       : Spin-Orbit,Spin-Spin,Magnetic field MRCI
   Yang Guo               : DLPNO-NEVPT2, CIM, IAO-localization
   Andreas Hansen         : Spin unrestricted coupled pair/coupled cluster methods
   Lee Huntington         : MR-EOM, pCC
   Robert Izsak           : Overlap fitted RIJCOSX, COSX-SCS-MP3, EOM
   Christian Kollmar      : KDIIS, OOCD, Brueckner-CCSD(T), CCSD density
   Simone Kossmann        : Meta GGA functionals, TD-DFT gradient, OOMP2, MP2 Hessian
   Martin Krupicka        : AUTO-CI
   Dagmar Lenk            : GEPOL surface
   Dimitrios Liakos       : Extrapolation schemes; parallel MDCI
   Dimitrios Manganas     : ROCIS; embedding schemes
   Dimitrios Pantazis     : SARC Basis sets
   Taras Petrenko         : DFT Hessian,TD-DFT gradient, ASA, ECA, R-Raman, ABS, FL, XAS/XES, NRVS
   Peter Pinski           : DLPNO-MP2
   Christoph Reimann      : Effective Core Potentials
   Marius Retegan         : Local ZFS, SOC
   Christoph Riplinger    : Optimizer, TS searches, QM/MM, DLPNO-CCSD(T), (RO)-DLPNO pert. Triples
   Tobias Risthaus        : Range-separated hybrids, TD-DFT gradient, RPA, STAB
   Michael Roemelt        : Restricted open shell CIS
   Masaaki Saitow         : Open-shell DLPNO
   Barbara Sandhoefer     : DKH picture change effects
   Kantharuban Sivalingam : CASSCF convergence, NEVPT2, FIC-MRCI
   Georgi Stoychev        : AutoAux
   Boris Wezisla          : Elementary symmetry handling
   Frank Wennmohs         : Technical directorship


 We gratefully acknowledge several colleagues who have allowed us to
 interface, adapt or use parts of their codes:
   Stefan Grimme, W. Hujo, H. Kruse,             : VdW corrections, initial TS optimization,
                  C. Bannwarth                     DFT functionals, gCP, sTDA/sTD-DF
   Ed Valeev                                     : LibInt (2-el integral package), F12 methods
   Garnet Chan, S. Sharma, J. Yang, R. Olivares  : DMRG
   Ulf Ekstrom                                   : XCFun DFT Library
   Mihaly Kallay                                 : mrcc  (arbitrary order and MRCC methods)
   Jiri Pittner, Ondrej Demel                    : Mk-CCSD
   Frank Weinhold                                : gennbo (NPA and NBO analysis)
   Christopher J. Cramer and Donald G. Truhlar   : smd solvation model


 Your calculation uses the libint2 library for the computation of 2-el integrals
 For citations please refer to: http://libint.valeyev.net

 This ORCA versions uses:
   CBLAS   interface :  Fast vector & matrix operations
   LAPACKE interface :  Fast linear algebra routines
   SCALAPACK package :  Parallel linear algebra routines


Your calculation utilizes the atom-pairwise dispersion correction
with the zero-damping scheme (D30)
Cite in your paper:
S.Grimme, J.Antony, S.Ehrlich and H.Krieg, J.Chem.Phys., 132, (2010), 154104 
   

XCFun DFT library Copyright 2009-2010 Ulf Ekstrom and contributors.
See http://admol.org/xcfun for more information. This is free soft-
ware; see the source code for copying conditions. There is ABSOLUTELY
NO WARRANTY; not even for MERCHANTABILITY or FITNESS FOR A PARTICULAR
PURPOSE. For details see the documentation. Scientific users of this 
library should cite U. Ekstrom, L. Visscher, R. Bast, A. J. Thorvald-
sen and K. Ruud; J.Chem.Theor.Comp. 2010, DOI: 10.1021/ct100117s
XCFun Version 0.99 
Your calculation utilizes the basis: 6-31G(d)
   H-He, Li-Ne : W. J. Hehre, R. Ditchfield and J.A. Pople, J. Chem. Phys. 56, 2257 (1972).
                 Note: He and Ne are unpublished basis sets taken from the Gaussian program.
                 Note: Li and B from J. D. Dill and J. A. Pople, J. Chem. Phys. 62, 2921 (1975).
   Na - Ar     : M. M. Francl, W. J. Pietro, W. J. Hehre, J. S. Binkley, M. S. Gordon, 
                 D. J. DeFrees and J. A. Pople, J. Chem. Phys. 77, 3654 (1982).
   K - Zn      : V. A. Rassolov, J. A. Pople, M. A. Ratner, and T. L. Windus, J. Chem. Phys. 109, 1223 (1998).

================================================================================
                                        WARNINGS
                       Please study these warnings very carefully!
================================================================================

Warning: TCutStore was < 0. Adjusted to Thresh (uncritical)

INFO   : the flag for use of LIBINT has been found!

================================================================================
                                       INPUT FILE
================================================================================
NAME = initial42.inp
|  1> ! WB97X-D3 6-31G(d) VerySlowConv
|  2> ! KDIIS NOSOSCF
|  3> %base "Scan_42"
|  4> 
|  5> %scf
|  6> maxiter 999
|  7> end
|  8> 
|  9> * xyz 0 1
| 10> C         -5.371159986396    2.440415419465    0.149878202860
| 11> O         -0.681097779611    2.366848901111    0.043413110033
| 12> H         -5.909204900756    3.137553104612   -0.458376008274
| 13> H         -5.902455029115    1.765163928484    0.788021950276
| 14> H         -4.300111801919    2.418349100653    0.119780759604
| 15> H          0.276919497795    2.363299545677    0.034281985501
| 16> **                         ****END OF INPUT****
================================================================================

                       ****************************
                       * Single Point Calculation *
                       ****************************

---------------------------------
CARTESIAN COORDINATES (ANGSTROEM)
---------------------------------
  C     -5.371160    2.440415    0.149878
  O     -0.681098    2.366849    0.043413
  H     -5.909205    3.137553   -0.458376
  H     -5.902455    1.765164    0.788022
  H     -4.300112    2.418349    0.119781
  H      0.276919    2.363300    0.034282

----------------------------
CARTESIAN COORDINATES (A.U.)
----------------------------
  NO LB      ZA    FRAG     MASS         X           Y           Z
   0 C     6.0000    0    12.011  -10.150021    4.611717    0.283229
   1 O     8.0000    0    15.999   -1.287088    4.472696    0.082039
   2 H     1.0000    0     1.008  -11.166779    5.929116   -0.866205
   3 H     1.0000    0     1.008  -11.154024    3.335676    1.489146
   4 H     1.0000    0     1.008   -8.126034    4.570017    0.226353
   5 H     1.0000    0     1.008    0.523302    4.465989    0.064784

--------------------------------
INTERNAL COORDINATES (ANGSTROEM)
--------------------------------
 C      0   0   0     0.000000000000     0.00000000     0.00000000
 O      1   0   0     4.691847221738     0.00000000     0.00000000
 H      1   2   0     1.070264671604   119.98989655     0.00000000
 H      1   2   3     1.070264659258   119.99093323   180.46923363
 H      1   2   3     1.071698181387     0.41806701    90.30413711
 H      2   1   3     0.958067366717   178.98032780    89.71578212

---------------------------
INTERNAL COORDINATES (A.U.)
---------------------------
 C      0   0   0     0.000000000000     0.00000000     0.00000000
 O      1   0   0     8.866306311283     0.00000000     0.00000000
 H      1   2   0     2.022507120142   119.98989655     0.00000000
 H      1   2   3     2.022507096812   119.99093323   180.46923363
 H      1   2   3     2.025216061043     0.41806701    90.30413711
 H      2   1   3     1.810484940942   178.98032780    89.71578212

---------------------
BASIS SET INFORMATION
---------------------
There are 3 groups of distinct atoms

 Group   1 Type C   : 10s4p1d contracted to 3s2p1d pattern {631/31/1}
 Group   2 Type O   : 10s4p1d contracted to 3s2p1d pattern {631/31/1}
 Group   3 Type H   : 4s contracted to 2s pattern {31}

Atom   0C    basis set group =>   1
Atom   1O    basis set group =>   2
Atom   2H    basis set group =>   3
Atom   3H    basis set group =>   3
Atom   4H    basis set group =>   3
Atom   5H    basis set group =>   3
------------------------------------------------------------------------------
                           ORCA GTO INTEGRAL CALCULATION
------------------------------------------------------------------------------

                         BASIS SET STATISTICS AND STARTUP INFO

 # of primitive gaussian shells          ...   46
 # of primitive gaussian functions       ...   70
 # of contracted shells                  ...   20
 # of contracted basis functions         ...   36
 Highest angular momentum                ...    2
 Maximum contraction depth               ...    6
 Integral package used                   ... LIBINT
 Integral threshhold            Thresh   ...  1.000e-10
 Primitive cut-off              TCut     ...  1.000e-11


------------------------------ INTEGRAL EVALUATION ----------------------------


 * One electron integrals 
 Pre-screening matrix                    ... done
 Shell pair data                         ... done (   0.000 sec)

-------------------------------------------------------------------------------
                                 ORCA SCF
-------------------------------------------------------------------------------

------------
SCF SETTINGS
------------
Hamiltonian:
 Density Functional     Method          .... DFT(GTOs)
 Exchange Functional    Exchange        .... WB97X-D3
 Correlation Functional Correlation     .... WB97X-D3
 Gradients option       PostSCFGGA      .... off
 Hybrid DFT is turned on
   Fraction HF Exchange ScalHFX         ....  0.195728
   Scaling of DF-GGA-X  ScalDFX         ....  0.000000
   Scaling of DF-GGA-C  ScalDFC         ....  1.000000
   Scaling of DF-LDA-C  ScalLDAC        ....  1.000000
   Perturbative correction              ....  0.000000
 Long-range corrected/Screened/Range-Separated Hybrid DFT is turned on
   Amount of maximum screened exact exchange              ....  0.804272
   Range separation parameter mu (erf(mu*r12)/r12)        ....  0.250000


General Settings:
 Integral files         IntName         .... Scan_42
 Hartree-Fock type      HFTyp           .... RHF
 Total Charge           Charge          ....    0
 Multiplicity           Mult            ....    1
 Number of Electrons    NEL             ....   18
 Basis Dimension        Dim             ....   36
 Nuclear Repulsion      ENuc            ....     23.1955263448 Eh

Convergence Acceleration:
 DIIS                   CNVDIIS         .... on
   Start iteration      DIISMaxIt       ....     0
   Startup error        DIISStart       ....  0.200000
   # of expansion vecs  DIISMaxEq       ....     5
   Bias factor          DIISBfac        ....   1.050
   Max. coefficient     DIISMaxC        ....  10.000
 Newton-Raphson         CNVNR           .... off
 SOSCF                  CNVSOSCF        .... off
 Level Shifting         CNVShift        .... off
 Zerner damping         CNVZerner       .... off
 Static damping         CNVDamp         .... off
 Fernandez-Rico         CNVRico         .... off

SCF Procedure:
 Maximum # iterations   MaxIter         ....   999
 SCF integral mode      SCFMode         .... Direct
   Integral package                     .... LIBINT
 Reset frequeny         DirectResetFreq ....    20
 Integral Threshold     Thresh          ....  1.000e-10 Eh
 Primitive CutOff       TCut            ....  1.000e-11 Eh

Convergence Tolerance:
 Convergence Check Mode ConvCheckMode   .... All-Criteria
 Convergence forced     ConvForced      .... 0
 Energy Change          TolE            ....  1.000e-06 Eh
 Max Density Change     TolMaxP         ....  1.000e-05
 RMS Density Change     TolRMSP         ....  1.000e-06
 DIIS Error             TolErr          ....  1.000e-06


Diagonalization of the overlap matrix:
Smallest eigenvalue                        ... 3.056e-02
Time for diagonalization                   ...    0.001 sec
Threshold for overlap eigenvalues          ... 1.000e-08
Number of eigenvalues below threshold      ... 0
Time for construction of square roots      ...    0.005 sec
Total time needed                          ...    0.006 sec

-------------------
DFT GRID GENERATION
-------------------

General Integration Accuracy     IntAcc      ...  4.340
Radial Grid Type                 RadialGrid  ... Gauss-Chebyshev
Angular Grid (max. acc.)         AngularGrid ... Lebedev-110
Angular grid pruning method      GridPruning ... 3 (G Style)
Weight generation scheme         WeightScheme... Becke
Basis function cutoff            BFCut       ...    1.0000e-10
Integration weight cutoff        WCut        ...    1.0000e-14
Grids for H and He will be reduced by one unit

# of grid points (after initial pruning)     ...   6548 (   0.0 sec)
# of grid points (after weights+screening)   ...   6409 (   0.0 sec)
nearest neighbour list constructed           ...    0.0 sec
Grid point re-assignment to atoms done       ...    0.0 sec
Grid point division into batches done        ...    0.0 sec
Reduced shell lists constructed in    0.0 sec

Total number of grid points                  ...     6409
Total number of batches                      ...      104
Average number of points per batch           ...       61
Average number of grid points per atom       ...     1068
Average number of shells per batch           ...    13.44 (67.19%)
Average number of basis functions per batch  ...    23.46 (65.16%)
Average number of large shells per batch     ...    10.67 (79.38%)
Average number of large basis fcns per batch ...    19.07 (81.28%)
Maximum spatial batch extension              ...  19.05, 20.95, 22.67 au
Average spatial batch extension              ...   4.64,  5.79,  5.76 au

Time for grid setup =    0.044 sec

------------------------------
INITIAL GUESS: MODEL POTENTIAL
------------------------------
Loading Hartree-Fock densities                     ... done
Calculating cut-offs                               ... done
Setting up the integral package                    ... done
Initializing the effective Hamiltonian             ... done
Starting the Coulomb interaction                   ... done (   0.0 sec)
Reading the grid                                   ... done
Mapping shells                                     ... done
Starting the XC term evaluation                    ... done (   0.0 sec)
  promolecular density results
     # of electrons  =     18.002983308
     EX              =    -14.307325405
     EC              =     -0.539751719
     EX+EC           =    -14.847077123
Transforming the Hamiltonian                       ... done (   0.0 sec)
Diagonalizing the Hamiltonian                      ... done (   0.0 sec)
Back transforming the eigenvectors                 ... done (   0.0 sec)
Now organizing SCF variables                       ... done
                      ------------------
                      INITIAL GUESS DONE (   0.2 sec)
                      ------------------
--------------
SCF ITERATIONS
--------------
ITER       Energy         Delta-E        Max-DP      RMS-DP      [F,P]   Gradient Norm
               ***  Starting incremental Fock matrix formation  ***
                             ****Resetting KDIIS****
                             ****Turning on KDIIS(Cayley)****
  0   -115.0659988823   0.000000000000 0.06147859  0.00402106  0.2545488   0.175855403
  1   -115.1507394365  -0.084740554170 0.04819349  0.00327146  0.2000934   0.136753852
  2   -115.1994673403  -0.048727903823 0.06028801  0.00453424  0.1557002   0.107661850
  3   -115.2469545444  -0.047487204074 0.08629031  0.00721026  0.0960241   0.068191856
  4   -115.2790104150  -0.032055870612 0.00554934  0.00057338  0.0130882   0.009614784
  5   -115.2781947453   0.000815669647 0.01151180  0.00114338  0.0157357   0.011642975
  6   -115.2792506611  -0.001055915804 0.01720488  0.00150282  0.0104687   0.008614577
  7   -115.2800575776  -0.000806916468 0.01337965  0.00092300  0.0052497   0.003889748
  8   -115.2802825325  -0.000224954906 0.00194957  0.00023452  0.0005537   0.000504360
  9   -115.2802892730  -0.000006740493 0.00181834  0.00020313  0.0003049   0.000236538
 10   -115.2802922104  -0.000002937417 0.00152336  0.00014454  0.0002470   0.000162108
 11   -115.2802937830  -0.000001572580 0.00037931  0.00003181  0.0001497   0.000128324
                          ***Energy convergence achieved***
 12   -115.2802934968   0.000000286245 0.00025285  0.00002369  0.0001879   0.000127012
 13   -115.2802934618   0.000000034996 0.00071102  0.00006204  0.0001985   0.000139689
 14   -115.2802936787  -0.000000216959 0.00129256  0.00011296  0.0001581   0.000134356
 15   -115.2802946011  -0.000000922340 0.00062491  0.00005850  0.0001381   0.000098452
 16   -115.2802940270   0.000000574058 0.00091367  0.00007454  0.0001295   0.000082632
 17   -115.2802944589  -0.000000431854 0.00121423  0.00008850  0.0001306   0.000072739
                           ***RMSP convergence achieved***
                           ***MAXP convergence achieved***
                    *** KDIIS BlockDiag ( 0.000 sec) ***

               *****************************************************
               *                     SUCCESS                       *
               *           SCF CONVERGED AFTER  18 CYCLES          *
               *****************************************************

Setting up the final grid:

General Integration Accuracy     IntAcc      ...  4.670
Radial Grid Type                 RadialGrid  ... Gauss-Chebyshev
Angular Grid (max. acc.)         AngularGrid ... Lebedev-302
Angular grid pruning method      GridPruning ... 3 (G Style)
Weight generation scheme         WeightScheme... Becke
Basis function cutoff            BFCut       ...    1.0000e-10
Integration weight cutoff        WCut        ...    1.0000e-14
Grids for H and He will be reduced by one unit

# of grid points (after initial pruning)     ...  26000 (   0.0 sec)
# of grid points (after weights+screening)   ...  25513 (   0.0 sec)
nearest neighbour list constructed           ...    0.0 sec
Grid point re-assignment to atoms done       ...    0.0 sec
Grid point division into batches done        ...    0.1 sec
Reduced shell lists constructed in    0.2 sec

Total number of grid points                  ...    25513
Total number of batches                      ...      402
Average number of points per batch           ...       63
Average number of grid points per atom       ...     4252
Average number of shells per batch           ...    11.95 (59.73%)
Average number of basis functions per batch  ...    20.69 (57.49%)
Average number of large shells per batch     ...     9.51 (79.64%)
Average number of large basis fcns per batch ...    16.95 (81.89%)
Maximum spatial batch extension              ...  21.59, 20.64, 20.64 au
Average spatial batch extension              ...   2.86,  3.43,  3.42 au

Final grid set up in    0.2 sec
Final integration                            ... done (   0.2 sec)
Change in XC energy                          ...    -0.000200269
Integrated number of electrons               ...    17.999993375
Previous integrated no of electrons          ...    17.995391464

----------------
TOTAL SCF ENERGY
----------------

Total Energy       :         -115.28049531 Eh           -3136.94176 eV

Components:
Nuclear Repulsion  :           23.19552634 Eh             631.18236 eV
Electronic Energy  :         -138.47602165 Eh           -3768.12412 eV
One Electron Energy:         -203.64670607 Eh           -5541.50860 eV
Two Electron Energy:           65.17068442 Eh            1773.38448 eV

Virial components:
Potential Energy   :         -230.10676791 Eh           -6261.52348 eV
Kinetic Energy     :          114.82627260 Eh            3124.58173 eV
Virial Ratio       :            2.00395574


DFT components:
N(Alpha)           :        8.999996687547 electrons
N(Beta)            :        8.999996687547 electrons
N(Total)           :       17.999993375094 electrons
E(XC)              :      -10.598629742081 Eh       

---------------
SCF CONVERGENCE
---------------

  Last Energy change         ...   -5.8032e-07  Tolerance :   1.0000e-06
  Last MAX-Density change    ...    7.7219e-06  Tolerance :   1.0000e-05
  Last RMS-Density change    ...    9.5806e-07  Tolerance :   1.0000e-06
  Last DIIS Error            ...    1.3416e-04  Tolerance :   1.0000e-06

             **** THE GBW FILE WAS UPDATED (Scan_42.gbw) ****
             **** DENSITY FILE WAS UPDATED (Scan_42.scfp.tmp) ****
             **** ENERGY FILE WAS UPDATED (Scan_42.en.tmp) ****
----------------
ORBITAL ENERGIES
----------------

  NO   OCC          E(Eh)            E(eV) 
   0   2.0000     -18.874320      -513.5964 
   1   2.0000     -10.621346      -289.0215 
   2   2.0000      -1.047051       -28.4917 
   3   2.0000      -0.777935       -21.1687 
   4   2.0000      -0.767334       -20.8802 
   5   2.0000      -0.710397       -19.3309 
   6   2.0000      -0.204167        -5.5557 
   7   2.0000      -0.048686        -1.3248 
   8   2.0000      -0.048684        -1.3248 
   9   0.0000      -0.263926        -7.1818 
  10   0.0000       0.050813         1.3827 
  11   0.0000       0.094772         2.5789 
  12   0.0000       0.135686         3.6922 
  13   0.0000       0.420945        11.4545 
  14   0.0000       0.435017        11.8374 
  15   0.0000       0.444928        12.1071 
  16   0.0000       0.458955        12.4888 
  17   0.0000       0.587650        15.9908 
  18   0.0000       0.801833        21.8190 
  19   0.0000       0.819284        22.2938 
  20   0.0000       0.881548        23.9882 
  21   0.0000       1.225333        33.3430 
  22   0.0000       1.301217        35.4079 
  23   0.0000       1.301236        35.4084 
  24   0.0000       1.339746        36.4564 
  25   0.0000       1.474157        40.1138 
  26   0.0000       1.474502        40.1232 
  27   0.0000       1.688413        45.9441 
  28   0.0000       1.878813        51.1251 
  29   0.0000       2.034169        55.3526 
  30   0.0000       2.036120        55.4056 
  31   0.0000       2.190979        59.6196 
  32   0.0000       2.190997        59.6201 
  33   0.0000       2.256987        61.4157 
  34   0.0000       2.257349        61.4256 
  35   0.0000       2.895662        78.7950 

                    ********************************
                    * MULLIKEN POPULATION ANALYSIS *
                    ********************************

-----------------------
MULLIKEN ATOMIC CHARGES
-----------------------
   0 C :   -0.099619
   1 O :   -1.227828
   2 H :    0.335946
   3 H :    0.335923
   4 H :    0.418333
   5 H :    0.237244
Sum of atomic charges:   -0.0000000

--------------------------------
MULLIKEN REDUCED ORBITAL CHARGES
--------------------------------
  0 C s       :     3.546052  s :     3.546052
      pz      :     0.552582  p :     2.530726
      px      :     1.309617
      py      :     0.668527
      dz2     :     0.001702  d :     0.022841
      dxz     :     0.004539
      dyz     :     0.005478
      dx2y2   :     0.005610
      dxy     :     0.005512
  1 O s       :     3.921960  s :     3.921960
      pz      :     1.998452  p :     5.292346
      px      :     1.295360
      py      :     1.998534
      dz2     :     0.002733  d :     0.013521
      dxz     :     0.001295
      dyz     :     0.000000
      dx2y2   :     0.008200
      dxy     :     0.001293
  2 H s       :     0.664054  s :     0.664054
  3 H s       :     0.664077  s :     0.664077
  4 H s       :     0.581667  s :     0.581667
  5 H s       :     0.762756  s :     0.762756


                     *******************************
                     * LOEWDIN POPULATION ANALYSIS *
                     *******************************

----------------------
LOEWDIN ATOMIC CHARGES
----------------------
   0 C :    0.260080
   1 O :   -1.177130
   2 H :    0.230243
   3 H :    0.230178
   4 H :    0.271841
   5 H :    0.184788

-------------------------------
LOEWDIN REDUCED ORBITAL CHARGES
-------------------------------
  0 C s       :     3.195207  s :     3.195207
      pz      :     0.558391  p :     2.511784
      px      :     1.277797
      py      :     0.675596
      dz2     :     0.002342  d :     0.032929
      dxz     :     0.007022
      dyz     :     0.006920
      dx2y2   :     0.008128
      dxy     :     0.008518
  1 O s       :     3.785629  s :     3.785629
      pz      :     1.998462  p :     5.371765
      px      :     1.374765
      py      :     1.998538
      dz2     :     0.004286  d :     0.019735
      dxz     :     0.001297
      dyz     :     0.000000
      dx2y2   :     0.012859
      dxy     :     0.001293
  2 H s       :     0.769757  s :     0.769757
  3 H s       :     0.769822  s :     0.769822
  4 H s       :     0.728159  s :     0.728159
  5 H s       :     0.815212  s :     0.815212


                      *****************************
                      * MAYER POPULATION ANALYSIS *
                      *****************************

  NA   - Mulliken gross atomic population
  ZA   - Total nuclear charge
  QA   - Mulliken gross atomic charge
  VA   - Mayer's total valence
  BVA  - Mayer's bonded valence
  FA   - Mayer's free valence

  ATOM       NA         ZA         QA         VA         BVA        FA
  0 C      6.0996     6.0000    -0.0996     2.5322     2.5322    -0.0000
  1 O      9.2278     8.0000    -1.2278     0.9063     0.9063    -0.0000
  2 H      0.6641     1.0000     0.3359     0.8620     0.8620     0.0000
  3 H      0.6641     1.0000     0.3359     0.8620     0.8620     0.0000
  4 H      0.5817     1.0000     0.4183     0.8169     0.8169    -0.0000
  5 H      0.7628     1.0000     0.2372     0.8943     0.8943    -0.0000

  Mayer bond orders larger than 0.1
B(  0-C ,  2-H ) :   0.8668 B(  0-C ,  3-H ) :   0.8668 B(  0-C ,  4-H ) :   0.8009 
B(  1-O ,  5-H ) :   0.8909 

-------
TIMINGS
-------

Total SCF time: 0 days 0 hours 0 min 5 sec 

Total time                  ....       5.921 sec
Sum of individual times     ....       5.622 sec  ( 94.9%)

Fock matrix formation       ....       5.191 sec  ( 87.7%)
  XC integration            ....       1.617 sec  ( 31.2% of F)
    Basis function eval.    ....       0.471 sec  ( 29.1% of XC)
    Density eval.           ....       0.073 sec  (  4.5% of XC)
    XC-Functional eval.     ....       0.459 sec  ( 28.4% of XC)
    XC-Potential eval.      ....       0.041 sec  (  2.5% of XC)
Diagonalization             ....       0.026 sec  (  0.4%)
Density matrix formation    ....       0.000 sec  (  0.0%)
Population analysis         ....       0.010 sec  (  0.2%)
Initial guess               ....       0.138 sec  (  2.3%)
Orbital Transformation      ....       0.000 sec  (  0.0%)
Orbital Orthonormalization  ....       0.000 sec  (  0.0%)
DIIS solution               ....       0.000 sec  (  0.0%)
Grid generation             ....       0.256 sec  (  4.3%)


-------------------------------------------------------------------------------
                          DFT DISPERSION CORRECTION                            
                                                                               
                              DFTD3 V3.1  Rev 1                                
                              USING zero damping                               
-------------------------------------------------------------------------------
The omegaB97X-D3 functional is recognized. Fit by Chai et al.
Active option DFTDOPT                   ...         3   

molecular C6(AA) [au] = 243.649726 


            DFT-D V3
 parameters
 s6 scaling factor         :     1.0000 
 rs6 scaling factor        :     1.2810 
 s8 scaling factor         :     1.0000 
 rs8 scaling factor        :     1.0940 
 Damping factor alpha6     :    14.0000 
 Damping factor alpha8     :    16.0000 
 ad hoc parameters k1-k3   :    16.0000     1.3333    -4.0000 

 Edisp/kcal,au: -0.104676666843  -0.000166812869 
 E6   /kcal   :  -0.073425644 
 E8   /kcal   :  -0.031251023 
 % E8         :  29.854812528 

-------------------------   ----------------
Dispersion correction           -0.000166813
-------------------------   ----------------


-------------------------   --------------------
FINAL SINGLE POINT ENERGY      -115.280662121360
-------------------------   --------------------


                            ***************************************
                            *     ORCA property calculations      *
                            ***************************************

                                    ---------------------
                                    Active property flags
                                    ---------------------
   (+) Dipole Moment


------------------------------------------------------------------------------
                       ORCA ELECTRIC PROPERTIES CALCULATION
------------------------------------------------------------------------------

Dipole Moment Calculation                       ... on
Quadrupole Moment Calculation                   ... off
Polarizability Calculation                      ... off
GBWName                                         ... Scan_42.gbw
Electron density file                           ... Scan_42.scfp.tmp

-------------
DIPOLE MOMENT
-------------
                                X             Y             Z
Electronic contribution:     -4.09956       0.05973       0.08782
Nuclear contribution   :     -4.12252       0.07395       0.10378
                        -----------------------------------------
Total Dipole Moment    :     -8.22207       0.13368       0.19161
                        -----------------------------------------
Magnitude (a.u.)       :      8.22539
Magnitude (Debye)      :     20.90729


Timings for individual modules:

Sum of individual times         ...        6.294 sec (=   0.105 min)
GTO integral calculation        ...        0.330 sec (=   0.006 min)   5.2 %
SCF iterations                  ...        5.963 sec (=   0.099 min)  94.8 %
                             ****ORCA TERMINATED NORMALLY****
TOTAL RUN TIME: 0 days 0 hours 0 minutes 6 seconds 660 msec
