
                                 *****************
                                 * O   R   C   A *
                                 *****************

           --- An Ab Initio, DFT and Semiempirical electronic structure package ---

                  #######################################################
                  #                        -***-                        #
                  #  Department of molecular theory and spectroscopy    #
                  #              Directorship: Frank Neese              #
                  # Max Planck Institute for Chemical Energy Conversion #
                  #                  D-45470 Muelheim/Ruhr              #
                  #                       Germany                       #
                  #                                                     #
                  #                  All rights reserved                #
                  #                        -***-                        #
                  #######################################################


                         Program Version 4.0.0.2 - RELEASE -


 With contributions from (in alphabetic order):
   Daniel Aravena         : Magnetic Properties
   Michael Atanasov       : Ab Initio Ligand Field Theory
   Ute Becker             : Parallelization
   Martin Brehm           : Molecular dynamics
   Dmytro Bykov           : SCF Hessian
   Vijay G. Chilkuri      : MRCI spin determinant printing
   Dipayan Datta          : RHF DLPNO-CCSD density
   Achintya Kumar Dutta   : EOM-CC, STEOM-CC
   Dmitry Ganyushin       : Spin-Orbit,Spin-Spin,Magnetic field MRCI
   Yang Guo               : DLPNO-NEVPT2, CIM, IAO-localization
   Andreas Hansen         : Spin unrestricted coupled pair/coupled cluster methods
   Lee Huntington         : MR-EOM, pCC
   Robert Izsak           : Overlap fitted RIJCOSX, COSX-SCS-MP3, EOM
   Christian Kollmar      : KDIIS, OOCD, Brueckner-CCSD(T), CCSD density
   Simone Kossmann        : Meta GGA functionals, TD-DFT gradient, OOMP2, MP2 Hessian
   Martin Krupicka        : AUTO-CI
   Dagmar Lenk            : GEPOL surface
   Dimitrios Liakos       : Extrapolation schemes; parallel MDCI
   Dimitrios Manganas     : ROCIS; embedding schemes
   Dimitrios Pantazis     : SARC Basis sets
   Taras Petrenko         : DFT Hessian,TD-DFT gradient, ASA, ECA, R-Raman, ABS, FL, XAS/XES, NRVS
   Peter Pinski           : DLPNO-MP2
   Christoph Reimann      : Effective Core Potentials
   Marius Retegan         : Local ZFS, SOC
   Christoph Riplinger    : Optimizer, TS searches, QM/MM, DLPNO-CCSD(T), (RO)-DLPNO pert. Triples
   Tobias Risthaus        : Range-separated hybrids, TD-DFT gradient, RPA, STAB
   Michael Roemelt        : Restricted open shell CIS
   Masaaki Saitow         : Open-shell DLPNO
   Barbara Sandhoefer     : DKH picture change effects
   Kantharuban Sivalingam : CASSCF convergence, NEVPT2, FIC-MRCI
   Georgi Stoychev        : AutoAux
   Boris Wezisla          : Elementary symmetry handling
   Frank Wennmohs         : Technical directorship


 We gratefully acknowledge several colleagues who have allowed us to
 interface, adapt or use parts of their codes:
   Stefan Grimme, W. Hujo, H. Kruse,             : VdW corrections, initial TS optimization,
                  C. Bannwarth                     DFT functionals, gCP, sTDA/sTD-DF
   Ed Valeev                                     : LibInt (2-el integral package), F12 methods
   Garnet Chan, S. Sharma, J. Yang, R. Olivares  : DMRG
   Ulf Ekstrom                                   : XCFun DFT Library
   Mihaly Kallay                                 : mrcc  (arbitrary order and MRCC methods)
   Jiri Pittner, Ondrej Demel                    : Mk-CCSD
   Frank Weinhold                                : gennbo (NPA and NBO analysis)
   Christopher J. Cramer and Donald G. Truhlar   : smd solvation model


 Your calculation uses the libint2 library for the computation of 2-el integrals
 For citations please refer to: http://libint.valeyev.net

 This ORCA versions uses:
   CBLAS   interface :  Fast vector & matrix operations
   LAPACKE interface :  Fast linear algebra routines
   SCALAPACK package :  Parallel linear algebra routines


Your calculation utilizes the atom-pairwise dispersion correction
with the zero-damping scheme (D30)
Cite in your paper:
S.Grimme, J.Antony, S.Ehrlich and H.Krieg, J.Chem.Phys., 132, (2010), 154104 
   

XCFun DFT library Copyright 2009-2010 Ulf Ekstrom and contributors.
See http://admol.org/xcfun for more information. This is free soft-
ware; see the source code for copying conditions. There is ABSOLUTELY
NO WARRANTY; not even for MERCHANTABILITY or FITNESS FOR A PARTICULAR
PURPOSE. For details see the documentation. Scientific users of this 
library should cite U. Ekstrom, L. Visscher, R. Bast, A. J. Thorvald-
sen and K. Ruud; J.Chem.Theor.Comp. 2010, DOI: 10.1021/ct100117s
XCFun Version 0.99 
Your calculation utilizes the basis: 6-31G(d)
   H-He, Li-Ne : W. J. Hehre, R. Ditchfield and J.A. Pople, J. Chem. Phys. 56, 2257 (1972).
                 Note: He and Ne are unpublished basis sets taken from the Gaussian program.
                 Note: Li and B from J. D. Dill and J. A. Pople, J. Chem. Phys. 62, 2921 (1975).
   Na - Ar     : M. M. Francl, W. J. Pietro, W. J. Hehre, J. S. Binkley, M. S. Gordon, 
                 D. J. DeFrees and J. A. Pople, J. Chem. Phys. 77, 3654 (1982).
   K - Zn      : V. A. Rassolov, J. A. Pople, M. A. Ratner, and T. L. Windus, J. Chem. Phys. 109, 1223 (1998).

================================================================================
                                        WARNINGS
                       Please study these warnings very carefully!
================================================================================

Warning: TCutStore was < 0. Adjusted to Thresh (uncritical)

INFO   : the flag for use of LIBINT has been found!

================================================================================
                                       INPUT FILE
================================================================================
NAME = initial43.inp
|  1> ! WB97X-D3 6-31G(d) VerySlowConv
|  2> ! KDIIS NOSOSCF
|  3> %base "Scan_43"
|  4> 
|  5> %scf
|  6> maxiter 999
|  7> end
|  8> 
|  9> * xyz 0 1
| 10> C         -5.405261645764    2.440938230610    0.150638983677
| 11> O         -0.612864195257    2.366138570464    0.042259949567
| 12> H         -5.943292929934    3.137846390480   -0.457837638822
| 13> H         -5.936542392827    1.765487099322    0.788533145087
| 14> H         -4.334345452112    2.419265062583    0.120974478638
| 15> H          0.345196615893    2.361954646543    0.032431081853
| 16> **                         ****END OF INPUT****
================================================================================

                       ****************************
                       * Single Point Calculation *
                       ****************************

---------------------------------
CARTESIAN COORDINATES (ANGSTROEM)
---------------------------------
  C     -5.405262    2.440938    0.150639
  O     -0.612864    2.366139    0.042260
  H     -5.943293    3.137846   -0.457838
  H     -5.936542    1.765487    0.788533
  H     -4.334345    2.419265    0.120974
  H      0.345197    2.361955    0.032431

----------------------------
CARTESIAN COORDINATES (A.U.)
----------------------------
  NO LB      ZA    FRAG     MASS         X           Y           Z
   0 C     6.0000    0    12.011  -10.214464    4.612705    0.284666
   1 O     8.0000    0    15.999   -1.158145    4.471354    0.079860
   2 H     1.0000    0     1.008  -11.231196    5.929670   -0.865188
   3 H     1.0000    0     1.008  -11.218439    3.336287    1.490112
   4 H     1.0000    0     1.008   -8.190726    4.571748    0.228609
   5 H     1.0000    0     1.008    0.652327    4.463447    0.061286

--------------------------------
INTERNAL COORDINATES (ANGSTROEM)
--------------------------------
 C      0   0   0     0.000000000000     0.00000000     0.00000000
 O      1   0   0     4.794206329291     0.00000000     0.00000000
 H      1   2   0     1.070234762175   119.98941443     0.00000000
 H      1   2   3     1.070234751874   119.99041004   180.43749910
 H      1   2   3     1.071546173946     0.39366631    90.28975225
 H      2   1   3     0.958120362857   179.04330669    89.73156971

---------------------------
INTERNAL COORDINATES (A.U.)
---------------------------
 C      0   0   0     0.000000000000     0.00000000     0.00000000
 O      1   0   0     9.059736991873     0.00000000     0.00000000
 H      1   2   0     2.022450599512   119.98941443     0.00000000
 H      1   2   3     2.022450580047   119.99041004   180.43749910
 H      1   2   3     2.024928808608     0.39366631    90.28975225
 H      2   1   3     1.810585089133   179.04330669    89.73156971

---------------------
BASIS SET INFORMATION
---------------------
There are 3 groups of distinct atoms

 Group   1 Type C   : 10s4p1d contracted to 3s2p1d pattern {631/31/1}
 Group   2 Type O   : 10s4p1d contracted to 3s2p1d pattern {631/31/1}
 Group   3 Type H   : 4s contracted to 2s pattern {31}

Atom   0C    basis set group =>   1
Atom   1O    basis set group =>   2
Atom   2H    basis set group =>   3
Atom   3H    basis set group =>   3
Atom   4H    basis set group =>   3
Atom   5H    basis set group =>   3
------------------------------------------------------------------------------
                           ORCA GTO INTEGRAL CALCULATION
------------------------------------------------------------------------------

                         BASIS SET STATISTICS AND STARTUP INFO

 # of primitive gaussian shells          ...   46
 # of primitive gaussian functions       ...   70
 # of contracted shells                  ...   20
 # of contracted basis functions         ...   36
 Highest angular momentum                ...    2
 Maximum contraction depth               ...    6
 Integral package used                   ... LIBINT
 Integral threshhold            Thresh   ...  1.000e-10
 Primitive cut-off              TCut     ...  1.000e-11


------------------------------ INTEGRAL EVALUATION ----------------------------


 * One electron integrals 
 Pre-screening matrix                    ... done
 Shell pair data                         ... done (   0.000 sec)

-------------------------------------------------------------------------------
                                 ORCA SCF
-------------------------------------------------------------------------------

------------
SCF SETTINGS
------------
Hamiltonian:
 Density Functional     Method          .... DFT(GTOs)
 Exchange Functional    Exchange        .... WB97X-D3
 Correlation Functional Correlation     .... WB97X-D3
 Gradients option       PostSCFGGA      .... off
 Hybrid DFT is turned on
   Fraction HF Exchange ScalHFX         ....  0.195728
   Scaling of DF-GGA-X  ScalDFX         ....  0.000000
   Scaling of DF-GGA-C  ScalDFC         ....  1.000000
   Scaling of DF-LDA-C  ScalLDAC        ....  1.000000
   Perturbative correction              ....  0.000000
 Long-range corrected/Screened/Range-Separated Hybrid DFT is turned on
   Amount of maximum screened exact exchange              ....  0.804272
   Range separation parameter mu (erf(mu*r12)/r12)        ....  0.250000


General Settings:
 Integral files         IntName         .... Scan_43
 Hartree-Fock type      HFTyp           .... RHF
 Total Charge           Charge          ....    0
 Multiplicity           Mult            ....    1
 Number of Electrons    NEL             ....   18
 Basis Dimension        Dim             ....   36
 Nuclear Repulsion      ENuc            ....     23.0031810500 Eh

Convergence Acceleration:
 DIIS                   CNVDIIS         .... on
   Start iteration      DIISMaxIt       ....     0
   Startup error        DIISStart       ....  0.200000
   # of expansion vecs  DIISMaxEq       ....     5
   Bias factor          DIISBfac        ....   1.050
   Max. coefficient     DIISMaxC        ....  10.000
 Newton-Raphson         CNVNR           .... off
 SOSCF                  CNVSOSCF        .... off
 Level Shifting         CNVShift        .... off
 Zerner damping         CNVZerner       .... off
 Static damping         CNVDamp         .... off
 Fernandez-Rico         CNVRico         .... off

SCF Procedure:
 Maximum # iterations   MaxIter         ....   999
 SCF integral mode      SCFMode         .... Direct
   Integral package                     .... LIBINT
 Reset frequeny         DirectResetFreq ....    20
 Integral Threshold     Thresh          ....  1.000e-10 Eh
 Primitive CutOff       TCut            ....  1.000e-11 Eh

Convergence Tolerance:
 Convergence Check Mode ConvCheckMode   .... All-Criteria
 Convergence forced     ConvForced      .... 0
 Energy Change          TolE            ....  1.000e-06 Eh
 Max Density Change     TolMaxP         ....  1.000e-05
 RMS Density Change     TolRMSP         ....  1.000e-06
 DIIS Error             TolErr          ....  1.000e-06


Diagonalization of the overlap matrix:
Smallest eigenvalue                        ... 3.058e-02
Time for diagonalization                   ...    0.001 sec
Threshold for overlap eigenvalues          ... 1.000e-08
Number of eigenvalues below threshold      ... 0
Time for construction of square roots      ...    0.005 sec
Total time needed                          ...    0.006 sec

-------------------
DFT GRID GENERATION
-------------------

General Integration Accuracy     IntAcc      ...  4.340
Radial Grid Type                 RadialGrid  ... Gauss-Chebyshev
Angular Grid (max. acc.)         AngularGrid ... Lebedev-110
Angular grid pruning method      GridPruning ... 3 (G Style)
Weight generation scheme         WeightScheme... Becke
Basis function cutoff            BFCut       ...    1.0000e-10
Integration weight cutoff        WCut        ...    1.0000e-14
Grids for H and He will be reduced by one unit

# of grid points (after initial pruning)     ...   6548 (   0.0 sec)
# of grid points (after weights+screening)   ...   6410 (   0.0 sec)
nearest neighbour list constructed           ...    0.0 sec
Grid point re-assignment to atoms done       ...    0.0 sec
Grid point division into batches done        ...    0.0 sec
Reduced shell lists constructed in    0.0 sec

Total number of grid points                  ...     6410
Total number of batches                      ...      103
Average number of points per batch           ...       62
Average number of grid points per atom       ...     1068
Average number of shells per batch           ...    13.32 (66.59%)
Average number of basis functions per batch  ...    23.26 (64.61%)
Average number of large shells per batch     ...    10.57 (79.35%)
Average number of large basis fcns per batch ...    18.89 (81.23%)
Maximum spatial batch extension              ...  19.05, 20.95, 22.68 au
Average spatial batch extension              ...   4.68,  5.87,  5.82 au

Time for grid setup =    0.168 sec

------------------------------
INITIAL GUESS: MODEL POTENTIAL
------------------------------
Loading Hartree-Fock densities                     ... done
Calculating cut-offs                               ... done
Setting up the integral package                    ... done
Initializing the effective Hamiltonian             ... done
Starting the Coulomb interaction                   ... done (   0.0 sec)
Reading the grid                                   ... done
Mapping shells                                     ... done
Starting the XC term evaluation                    ... done (   0.1 sec)
  promolecular density results
     # of electrons  =     18.002996405
     EX              =    -14.307302290
     EC              =     -0.539738653
     EX+EC           =    -14.847040943
Transforming the Hamiltonian                       ... done (   0.0 sec)
Diagonalizing the Hamiltonian                      ... done (   0.0 sec)
Back transforming the eigenvectors                 ... done (   0.0 sec)
Now organizing SCF variables                       ... done
                      ------------------
                      INITIAL GUESS DONE (   0.7 sec)
                      ------------------
--------------
SCF ITERATIONS
--------------
ITER       Energy         Delta-E        Max-DP      RMS-DP      [F,P]   Gradient Norm
               ***  Starting incremental Fock matrix formation  ***
                             ****Resetting KDIIS****
                             ****Turning on KDIIS(Cayley)****
  0   -115.0629436877   0.000000000000 0.06232213  0.00406640  0.2491913   0.175894316
  1   -115.1487443642  -0.085800676516 0.04172949  0.00311543  0.1949740   0.136236669
  2   -115.1942445441  -0.045500179913 0.06015283  0.00464493  0.1560444   0.109347204
  3   -115.2428151890  -0.048570644895 0.08949554  0.00741192  0.0982680   0.069722570
  4   -115.2761883661  -0.033373177081 0.00395306  0.00039569  0.0121010   0.009191448
  5   -115.2756856347   0.000502731451 0.00792151  0.00072657  0.0141028   0.010642983
  6   -115.2762140343  -0.000528399645 0.01174490  0.00114807  0.0106989   0.008519916
  7   -115.2768778137  -0.000663779380 0.01300811  0.00095127  0.0059426   0.004272497
  8   -115.2771323862  -0.000254572540 0.00240614  0.00022177  0.0007425   0.000495469
  9   -115.2771379951  -0.000005608916 0.00248327  0.00021536  0.0002832   0.000218964
 10   -115.2771409995  -0.000003004401 0.00179699  0.00018575  0.0001806   0.000159727
 11   -115.2771428704  -0.000001870897 0.00107078  0.00008772  0.0001347   0.000106149
                          ***Energy convergence achieved***
 12   -115.2771436743  -0.000000803861 0.00076693  0.00005619  0.0001378   0.000093852
 13   -115.2771431480   0.000000526285 0.00074354  0.00006304  0.0001345   0.000094611
 14   -115.2771436714  -0.000000523343 0.00049174  0.00003709  0.0001377   0.000087132
 15   -115.2771433193   0.000000352058 0.00052627  0.00003915  0.0001357   0.000086764
 16   -115.2771435963  -0.000000277036 0.00015652  0.00001100  0.0001378   0.000076190
 17   -115.2771436756  -0.000000079292 0.00025347  0.00002064  0.0001385   0.000075940
 18   -115.2771435757   0.000000099915 0.00028319  0.00001993  0.0001374   0.000078163

            ***Energy convergence in two consecutive cycles with***
                    ***'reasonable' density convergence***
                       *** signaling convergence ***

                    *** KDIIS BlockDiag ( 0.000 sec) ***

               *****************************************************
               *                     SUCCESS                       *
               *           SCF CONVERGED AFTER  19 CYCLES          *
               *****************************************************

Setting up the final grid:

General Integration Accuracy     IntAcc      ...  4.670
Radial Grid Type                 RadialGrid  ... Gauss-Chebyshev
Angular Grid (max. acc.)         AngularGrid ... Lebedev-302
Angular grid pruning method      GridPruning ... 3 (G Style)
Weight generation scheme         WeightScheme... Becke
Basis function cutoff            BFCut       ...    1.0000e-10
Integration weight cutoff        WCut        ...    1.0000e-14
Grids for H and He will be reduced by one unit

# of grid points (after initial pruning)     ...  26000 (   0.0 sec)
# of grid points (after weights+screening)   ...  25525 (   0.1 sec)
nearest neighbour list constructed           ...    0.0 sec
Grid point re-assignment to atoms done       ...    0.0 sec
Grid point division into batches done        ...    0.4 sec
Reduced shell lists constructed in    0.6 sec

Total number of grid points                  ...    25525
Total number of batches                      ...      402
Average number of points per batch           ...       63
Average number of grid points per atom       ...     4254
Average number of shells per batch           ...    11.77 (58.86%)
Average number of basis functions per batch  ...    20.40 (56.67%)
Average number of large shells per batch     ...     9.39 (79.78%)
Average number of large basis fcns per batch ...    16.69 (81.82%)
Maximum spatial batch extension              ...  20.16, 20.64, 20.64 au
Average spatial batch extension              ...   2.85,  3.42,  3.41 au

Final grid set up in    0.8 sec
Final integration                            ... done (   0.5 sec)
Change in XC energy                          ...    -0.000207412
Integrated number of electrons               ...    17.999991872
Previous integrated no of electrons          ...    17.995542717

----------------
TOTAL SCF ENERGY
----------------

Total Energy       :         -115.27735113 Eh           -3136.85620 eV

Components:
Nuclear Repulsion  :           23.00318105 Eh             625.94838 eV
Electronic Energy  :         -138.28053218 Eh           -3762.80458 eV
One Electron Energy:         -203.26281222 Eh           -5531.06231 eV
Two Electron Energy:           64.98228004 Eh            1768.25774 eV

Virial components:
Potential Energy   :         -230.10617465 Eh           -6261.50734 eV
Kinetic Energy     :          114.82882352 Eh            3124.65114 eV
Virial Ratio       :            2.00390605


DFT components:
N(Alpha)           :        8.999995936139 electrons
N(Beta)            :        8.999995936139 electrons
N(Total)           :       17.999991872278 electrons
E(XC)              :      -10.599187068146 Eh       

---------------
SCF CONVERGENCE
---------------

  Last Energy change         ...   -1.4307e-07  Tolerance :   1.0000e-06
  Last MAX-Density change    ...    9.0162e-05  Tolerance :   1.0000e-05
  Last RMS-Density change    ...    9.0659e-06  Tolerance :   1.0000e-06
  Last DIIS Error            ...    1.3891e-04  Tolerance :   1.0000e-06

             **** THE GBW FILE WAS UPDATED (Scan_43.gbw) ****
             **** DENSITY FILE WAS UPDATED (Scan_43.scfp.tmp) ****
             **** ENERGY FILE WAS UPDATED (Scan_43.en.tmp) ****
----------------
ORBITAL ENERGIES
----------------

  NO   OCC          E(Eh)            E(eV) 
   0   2.0000     -18.871029      -513.5068 
   1   2.0000     -10.624423      -289.1052 
   2   2.0000      -1.050064       -28.5737 
   3   2.0000      -0.780732       -21.2448 
   4   2.0000      -0.770723       -20.9724 
   5   2.0000      -0.707294       -19.2465 
   6   2.0000      -0.200793        -5.4639 
   7   2.0000      -0.045562        -1.2398 
   8   2.0000      -0.045561        -1.2398 
   9   0.0000      -0.266826        -7.2607 
  10   0.0000       0.048288         1.3140 
  11   0.0000       0.092392         2.5141 
  12   0.0000       0.130702         3.5566 
  13   0.0000       0.423196        11.5157 
  14   0.0000       0.432280        11.7629 
  15   0.0000       0.441856        12.0235 
  16   0.0000       0.456155        12.4126 
  17   0.0000       0.584703        15.9106 
  18   0.0000       0.799271        21.7493 
  19   0.0000       0.816264        22.2117 
  20   0.0000       0.878687        23.9103 
  21   0.0000       1.227889        33.4126 
  22   0.0000       1.304259        35.4907 
  23   0.0000       1.304275        35.4911 
  24   0.0000       1.337879        36.4055 
  25   0.0000       1.471178        40.0328 
  26   0.0000       1.471467        40.0406 
  27   0.0000       1.691079        46.0166 
  28   0.0000       1.875857        51.0447 
  29   0.0000       2.031253        55.2732 
  30   0.0000       2.033068        55.3226 
  31   0.0000       2.194217        59.7077 
  32   0.0000       2.194231        59.7081 
  33   0.0000       2.260095        61.5003 
  34   0.0000       2.260460        61.5102 
  35   0.0000       2.898570        78.8741 

                    ********************************
                    * MULLIKEN POPULATION ANALYSIS *
                    ********************************

-----------------------
MULLIKEN ATOMIC CHARGES
-----------------------
   0 C :   -0.098606
   1 O :   -1.227394
   2 H :    0.337140
   3 H :    0.337118
   4 H :    0.417341
   5 H :    0.234401
Sum of atomic charges:   -0.0000000

--------------------------------
MULLIKEN REDUCED ORBITAL CHARGES
--------------------------------
  0 C s       :     3.545667  s :     3.545667
      pz      :     0.553387  p :     2.530091
      px      :     1.307181
      py      :     0.669522
      dz2     :     0.001711  d :     0.022849
      dxz     :     0.004522
      dyz     :     0.005483
      dx2y2   :     0.005641
      dxy     :     0.005492
  1 O s       :     3.923025  s :     3.923025
      pz      :     1.998478  p :     5.290781
      px      :     1.293743
      py      :     1.998561
      dz2     :     0.002745  d :     0.013588
      dxz     :     0.001305
      dyz     :     0.000000
      dx2y2   :     0.008235
      dxy     :     0.001303
  2 H s       :     0.662860  s :     0.662860
  3 H s       :     0.662882  s :     0.662882
  4 H s       :     0.582659  s :     0.582659
  5 H s       :     0.765599  s :     0.765599


                     *******************************
                     * LOEWDIN POPULATION ANALYSIS *
                     *******************************

----------------------
LOEWDIN ATOMIC CHARGES
----------------------
   0 C :    0.261071
   1 O :   -1.177014
   2 H :    0.230889
   3 H :    0.230826
   4 H :    0.271417
   5 H :    0.182812

-------------------------------
LOEWDIN REDUCED ORBITAL CHARGES
-------------------------------
  0 C s       :     3.194752  s :     3.194752
      pz      :     0.558796  p :     2.511250
      px      :     1.276350
      py      :     0.676104
      dz2     :     0.002354  d :     0.032927
      dxz     :     0.006995
      dyz     :     0.006921
      dx2y2   :     0.008172
      dxy     :     0.008486
  1 O s       :     3.786833  s :     3.786833
      pz      :     1.998488  p :     5.370320
      px      :     1.373269
      py      :     1.998564
      dz2     :     0.004312  d :     0.019861
      dxz     :     0.001307
      dyz     :     0.000000
      dx2y2   :     0.012939
      dxy     :     0.001303
  2 H s       :     0.769111  s :     0.769111
  3 H s       :     0.769174  s :     0.769174
  4 H s       :     0.728583  s :     0.728583
  5 H s       :     0.817188  s :     0.817188


                      *****************************
                      * MAYER POPULATION ANALYSIS *
                      *****************************

  NA   - Mulliken gross atomic population
  ZA   - Total nuclear charge
  QA   - Mulliken gross atomic charge
  VA   - Mayer's total valence
  BVA  - Mayer's bonded valence
  FA   - Mayer's free valence

  ATOM       NA         ZA         QA         VA         BVA        FA
  0 C      6.0986     6.0000    -0.0986     2.5357     2.5357    -0.0000
  1 O      9.2274     8.0000    -1.2274     0.9041     0.9041    -0.0000
  2 H      0.6629     1.0000     0.3371     0.8614     0.8614     0.0000
  3 H      0.6629     1.0000     0.3371     0.8614     0.8614    -0.0000
  4 H      0.5827     1.0000     0.4173     0.8157     0.8157    -0.0000
  5 H      0.7656     1.0000     0.2344     0.8951     0.8951    -0.0000

  Mayer bond orders larger than 0.1
B(  0-C ,  2-H ) :   0.8662 B(  0-C ,  3-H ) :   0.8662 B(  0-C ,  4-H ) :   0.8050 
B(  1-O ,  5-H ) :   0.8926 

-------
TIMINGS
-------

Total SCF time: 0 days 0 hours 0 min 21 sec 

Total time                  ....      21.480 sec
Sum of individual times     ....      20.489 sec  ( 95.4%)

Fock matrix formation       ....      18.824 sec  ( 87.6%)
  XC integration            ....       4.534 sec  ( 24.1% of F)
    Basis function eval.    ....       1.281 sec  ( 28.3% of XC)
    Density eval.           ....       0.269 sec  (  5.9% of XC)
    XC-Functional eval.     ....       0.861 sec  ( 19.0% of XC)
    XC-Potential eval.      ....       0.063 sec  (  1.4% of XC)
Diagonalization             ....       0.098 sec  (  0.5%)
Density matrix formation    ....       0.000 sec  (  0.0%)
Population analysis         ....       0.093 sec  (  0.4%)
Initial guess               ....       0.548 sec  (  2.6%)
Orbital Transformation      ....       0.000 sec  (  0.0%)
Orbital Orthonormalization  ....       0.000 sec  (  0.0%)
DIIS solution               ....       0.000 sec  (  0.0%)
Grid generation             ....       0.926 sec  (  4.3%)


-------------------------------------------------------------------------------
                          DFT DISPERSION CORRECTION                            
                                                                               
                              DFTD3 V3.1  Rev 1                                
                              USING zero damping                               
-------------------------------------------------------------------------------
The omegaB97X-D3 functional is recognized. Fit by Chai et al.
Active option DFTDOPT                   ...         3   

molecular C6(AA) [au] = 243.649692 


            DFT-D V3
 parameters
 s6 scaling factor         :     1.0000 
 rs6 scaling factor        :     1.2810 
 s8 scaling factor         :     1.0000 
 rs8 scaling factor        :     1.0940 
 Damping factor alpha6     :    14.0000 
 Damping factor alpha8     :    16.0000 
 ad hoc parameters k1-k3   :    16.0000     1.3333    -4.0000 

 Edisp/kcal,au: -0.092615672457  -0.000147592453 
 E6   /kcal   :  -0.065321357 
 E8   /kcal   :  -0.027294315 
 % E8         :  29.470514429 

-------------------------   ----------------
Dispersion correction           -0.000147592
-------------------------   ----------------


-------------------------   --------------------
FINAL SINGLE POINT ENERGY      -115.277498723071
-------------------------   --------------------


                            ***************************************
                            *     ORCA property calculations      *
                            ***************************************

                                    ---------------------
                                    Active property flags
                                    ---------------------
   (+) Dipole Moment


------------------------------------------------------------------------------
                       ORCA ELECTRIC PROPERTIES CALCULATION
------------------------------------------------------------------------------

Dipole Moment Calculation                       ... on
Quadrupole Moment Calculation                   ... off
Polarizability Calculation                      ... off
GBWName                                         ... Scan_43.gbw
Electron density file                           ... Scan_43.scfp.tmp

-------------
DIPOLE MOMENT
-------------
                                X             Y             Z
Electronic contribution:     -4.21130       0.06143       0.09031
Nuclear contribution   :     -4.22968       0.07469       0.10518
                        -----------------------------------------
Total Dipole Moment    :     -8.44099       0.13612       0.19549
                        -----------------------------------------
Magnitude (a.u.)       :      8.44435
Magnitude (Debye)      :     21.46382


Timings for individual modules:

Sum of individual times         ...       22.807 sec (=   0.380 min)
GTO integral calculation        ...        1.166 sec (=   0.019 min)   5.1 %
SCF iterations                  ...       21.641 sec (=   0.361 min)  94.9 %
                             ****ORCA TERMINATED NORMALLY****
TOTAL RUN TIME: 0 days 0 hours 0 minutes 24 seconds 157 msec
