
                                 *****************
                                 * O   R   C   A *
                                 *****************

           --- An Ab Initio, DFT and Semiempirical electronic structure package ---

                  #######################################################
                  #                        -***-                        #
                  #  Department of molecular theory and spectroscopy    #
                  #              Directorship: Frank Neese              #
                  # Max Planck Institute for Chemical Energy Conversion #
                  #                  D-45470 Muelheim/Ruhr              #
                  #                       Germany                       #
                  #                                                     #
                  #                  All rights reserved                #
                  #                        -***-                        #
                  #######################################################


                         Program Version 4.0.0.2 - RELEASE -


 With contributions from (in alphabetic order):
   Daniel Aravena         : Magnetic Properties
   Michael Atanasov       : Ab Initio Ligand Field Theory
   Ute Becker             : Parallelization
   Martin Brehm           : Molecular dynamics
   Dmytro Bykov           : SCF Hessian
   Vijay G. Chilkuri      : MRCI spin determinant printing
   Dipayan Datta          : RHF DLPNO-CCSD density
   Achintya Kumar Dutta   : EOM-CC, STEOM-CC
   Dmitry Ganyushin       : Spin-Orbit,Spin-Spin,Magnetic field MRCI
   Yang Guo               : DLPNO-NEVPT2, CIM, IAO-localization
   Andreas Hansen         : Spin unrestricted coupled pair/coupled cluster methods
   Lee Huntington         : MR-EOM, pCC
   Robert Izsak           : Overlap fitted RIJCOSX, COSX-SCS-MP3, EOM
   Christian Kollmar      : KDIIS, OOCD, Brueckner-CCSD(T), CCSD density
   Simone Kossmann        : Meta GGA functionals, TD-DFT gradient, OOMP2, MP2 Hessian
   Martin Krupicka        : AUTO-CI
   Dagmar Lenk            : GEPOL surface
   Dimitrios Liakos       : Extrapolation schemes; parallel MDCI
   Dimitrios Manganas     : ROCIS; embedding schemes
   Dimitrios Pantazis     : SARC Basis sets
   Taras Petrenko         : DFT Hessian,TD-DFT gradient, ASA, ECA, R-Raman, ABS, FL, XAS/XES, NRVS
   Peter Pinski           : DLPNO-MP2
   Christoph Reimann      : Effective Core Potentials
   Marius Retegan         : Local ZFS, SOC
   Christoph Riplinger    : Optimizer, TS searches, QM/MM, DLPNO-CCSD(T), (RO)-DLPNO pert. Triples
   Tobias Risthaus        : Range-separated hybrids, TD-DFT gradient, RPA, STAB
   Michael Roemelt        : Restricted open shell CIS
   Masaaki Saitow         : Open-shell DLPNO
   Barbara Sandhoefer     : DKH picture change effects
   Kantharuban Sivalingam : CASSCF convergence, NEVPT2, FIC-MRCI
   Georgi Stoychev        : AutoAux
   Boris Wezisla          : Elementary symmetry handling
   Frank Wennmohs         : Technical directorship


 We gratefully acknowledge several colleagues who have allowed us to
 interface, adapt or use parts of their codes:
   Stefan Grimme, W. Hujo, H. Kruse,             : VdW corrections, initial TS optimization,
                  C. Bannwarth                     DFT functionals, gCP, sTDA/sTD-DF
   Ed Valeev                                     : LibInt (2-el integral package), F12 methods
   Garnet Chan, S. Sharma, J. Yang, R. Olivares  : DMRG
   Ulf Ekstrom                                   : XCFun DFT Library
   Mihaly Kallay                                 : mrcc  (arbitrary order and MRCC methods)
   Jiri Pittner, Ondrej Demel                    : Mk-CCSD
   Frank Weinhold                                : gennbo (NPA and NBO analysis)
   Christopher J. Cramer and Donald G. Truhlar   : smd solvation model


 Your calculation uses the libint2 library for the computation of 2-el integrals
 For citations please refer to: http://libint.valeyev.net

 This ORCA versions uses:
   CBLAS   interface :  Fast vector & matrix operations
   LAPACKE interface :  Fast linear algebra routines
   SCALAPACK package :  Parallel linear algebra routines


Your calculation utilizes the atom-pairwise dispersion correction
with the zero-damping scheme (D30)
Cite in your paper:
S.Grimme, J.Antony, S.Ehrlich and H.Krieg, J.Chem.Phys., 132, (2010), 154104 
   

XCFun DFT library Copyright 2009-2010 Ulf Ekstrom and contributors.
See http://admol.org/xcfun for more information. This is free soft-
ware; see the source code for copying conditions. There is ABSOLUTELY
NO WARRANTY; not even for MERCHANTABILITY or FITNESS FOR A PARTICULAR
PURPOSE. For details see the documentation. Scientific users of this 
library should cite U. Ekstrom, L. Visscher, R. Bast, A. J. Thorvald-
sen and K. Ruud; J.Chem.Theor.Comp. 2010, DOI: 10.1021/ct100117s
XCFun Version 0.99 
Your calculation utilizes the basis: 6-31G(d)
   H-He, Li-Ne : W. J. Hehre, R. Ditchfield and J.A. Pople, J. Chem. Phys. 56, 2257 (1972).
                 Note: He and Ne are unpublished basis sets taken from the Gaussian program.
                 Note: Li and B from J. D. Dill and J. A. Pople, J. Chem. Phys. 62, 2921 (1975).
   Na - Ar     : M. M. Francl, W. J. Pietro, W. J. Hehre, J. S. Binkley, M. S. Gordon, 
                 D. J. DeFrees and J. A. Pople, J. Chem. Phys. 77, 3654 (1982).
   K - Zn      : V. A. Rassolov, J. A. Pople, M. A. Ratner, and T. L. Windus, J. Chem. Phys. 109, 1223 (1998).

================================================================================
                                        WARNINGS
                       Please study these warnings very carefully!
================================================================================

Warning: TCutStore was < 0. Adjusted to Thresh (uncritical)

INFO   : the flag for use of LIBINT has been found!

================================================================================
                                       INPUT FILE
================================================================================
NAME = initial44.inp
|  1> ! WB97X-D3 6-31G(d) VerySlowConv
|  2> ! KDIIS NOSOSCF
|  3> %base "Scan_44"
|  4> 
|  5> %scf
|  6> maxiter 999
|  7> end
|  8> 
|  9> * xyz 0 1
| 10> C         -5.439360866503    2.441457088150    0.151395406653
| 11> O         -0.544638622057    2.365381039152    0.041054937995
| 12> H         -5.977379089170    3.138162870841   -0.457274160865
| 13> H         -5.970627974379    1.765833078642    0.789069802757
| 14> H         -4.368564678282    2.420133465859    0.122115836372
| 15> H          0.413461230390    2.360662457358    0.030638177088
| 16> **                         ****END OF INPUT****
================================================================================

                       ****************************
                       * Single Point Calculation *
                       ****************************

---------------------------------
CARTESIAN COORDINATES (ANGSTROEM)
---------------------------------
  C     -5.439361    2.441457    0.151395
  O     -0.544639    2.365381    0.041055
  H     -5.977379    3.138163   -0.457274
  H     -5.970628    1.765833    0.789070
  H     -4.368565    2.420133    0.122116
  H      0.413461    2.360662    0.030638

----------------------------
CARTESIAN COORDINATES (A.U.)
----------------------------
  NO LB      ZA    FRAG     MASS         X           Y           Z
   0 C     6.0000    0    12.011  -10.278902    4.613685    0.286096
   1 O     8.0000    0    15.999   -1.029218    4.469922    0.077583
   2 H     1.0000    0     1.008  -11.295609    5.930268   -0.864123
   3 H     1.0000    0     1.008  -11.282852    3.336941    1.491126
   4 H     1.0000    0     1.008   -8.255391    4.573389    0.230765
   5 H     1.0000    0     1.008    0.781328    4.461006    0.057898

--------------------------------
INTERNAL COORDINATES (ANGSTROEM)
--------------------------------
 C      0   0   0     0.000000000000     0.00000000     0.00000000
 O      1   0   0     4.896556793761     0.00000000     0.00000000
 H      1   2   0     1.070206147422   119.98900303     0.00000000
 H      1   2   3     1.070206137892   119.98996168   180.40952189
 H      1   2   3     1.071408636708     0.37167059    90.27726930
 H      2   1   3     0.958168096516   179.09637288    89.74549602

---------------------------
INTERNAL COORDINATES (A.U.)
---------------------------
 C      0   0   0     0.000000000000     0.00000000     0.00000000
 O      1   0   0     9.253151339400     0.00000000     0.00000000
 H      1   2   0     2.022396525466   119.98900303     0.00000000
 H      1   2   3     2.022396507457   119.98996168   180.40952189
 H      1   2   3     2.024668900896     0.37167059    90.27726930
 H      2   1   3     1.810675292676   179.09637288    89.74549602

---------------------
BASIS SET INFORMATION
---------------------
There are 3 groups of distinct atoms

 Group   1 Type C   : 10s4p1d contracted to 3s2p1d pattern {631/31/1}
 Group   2 Type O   : 10s4p1d contracted to 3s2p1d pattern {631/31/1}
 Group   3 Type H   : 4s contracted to 2s pattern {31}

Atom   0C    basis set group =>   1
Atom   1O    basis set group =>   2
Atom   2H    basis set group =>   3
Atom   3H    basis set group =>   3
Atom   4H    basis set group =>   3
Atom   5H    basis set group =>   3
------------------------------------------------------------------------------
                           ORCA GTO INTEGRAL CALCULATION
------------------------------------------------------------------------------

                         BASIS SET STATISTICS AND STARTUP INFO

 # of primitive gaussian shells          ...   46
 # of primitive gaussian functions       ...   70
 # of contracted shells                  ...   20
 # of contracted basis functions         ...   36
 Highest angular momentum                ...    2
 Maximum contraction depth               ...    6
 Integral package used                   ... LIBINT
 Integral threshhold            Thresh   ...  1.000e-10
 Primitive cut-off              TCut     ...  1.000e-11


------------------------------ INTEGRAL EVALUATION ----------------------------


 * One electron integrals 
 Pre-screening matrix                    ... done
 Shell pair data                         ... done (   0.000 sec)

-------------------------------------------------------------------------------
                                 ORCA SCF
-------------------------------------------------------------------------------

------------
SCF SETTINGS
------------
Hamiltonian:
 Density Functional     Method          .... DFT(GTOs)
 Exchange Functional    Exchange        .... WB97X-D3
 Correlation Functional Correlation     .... WB97X-D3
 Gradients option       PostSCFGGA      .... off
 Hybrid DFT is turned on
   Fraction HF Exchange ScalHFX         ....  0.195728
   Scaling of DF-GGA-X  ScalDFX         ....  0.000000
   Scaling of DF-GGA-C  ScalDFC         ....  1.000000
   Scaling of DF-LDA-C  ScalLDAC        ....  1.000000
   Perturbative correction              ....  0.000000
 Long-range corrected/Screened/Range-Separated Hybrid DFT is turned on
   Amount of maximum screened exact exchange              ....  0.804272
   Range separation parameter mu (erf(mu*r12)/r12)        ....  0.250000


General Settings:
 Integral files         IntName         .... Scan_44
 Hartree-Fock type      HFTyp           .... RHF
 Total Charge           Charge          ....    0
 Multiplicity           Mult            ....    1
 Number of Electrons    NEL             ....   18
 Basis Dimension        Dim             ....   36
 Nuclear Repulsion      ENuc            ....     22.8190007504 Eh

Convergence Acceleration:
 DIIS                   CNVDIIS         .... on
   Start iteration      DIISMaxIt       ....     0
   Startup error        DIISStart       ....  0.200000
   # of expansion vecs  DIISMaxEq       ....     5
   Bias factor          DIISBfac        ....   1.050
   Max. coefficient     DIISMaxC        ....  10.000
 Newton-Raphson         CNVNR           .... off
 SOSCF                  CNVSOSCF        .... off
 Level Shifting         CNVShift        .... off
 Zerner damping         CNVZerner       .... off
 Static damping         CNVDamp         .... off
 Fernandez-Rico         CNVRico         .... off

SCF Procedure:
 Maximum # iterations   MaxIter         ....   999
 SCF integral mode      SCFMode         .... Direct
   Integral package                     .... LIBINT
 Reset frequeny         DirectResetFreq ....    20
 Integral Threshold     Thresh          ....  1.000e-10 Eh
 Primitive CutOff       TCut            ....  1.000e-11 Eh

Convergence Tolerance:
 Convergence Check Mode ConvCheckMode   .... All-Criteria
 Convergence forced     ConvForced      .... 0
 Energy Change          TolE            ....  1.000e-06 Eh
 Max Density Change     TolMaxP         ....  1.000e-05
 RMS Density Change     TolRMSP         ....  1.000e-06
 DIIS Error             TolErr          ....  1.000e-06


Diagonalization of the overlap matrix:
Smallest eigenvalue                        ... 3.059e-02
Time for diagonalization                   ...    0.001 sec
Threshold for overlap eigenvalues          ... 1.000e-08
Number of eigenvalues below threshold      ... 0
Time for construction of square roots      ...    0.016 sec
Total time needed                          ...    0.017 sec

-------------------
DFT GRID GENERATION
-------------------

General Integration Accuracy     IntAcc      ...  4.340
Radial Grid Type                 RadialGrid  ... Gauss-Chebyshev
Angular Grid (max. acc.)         AngularGrid ... Lebedev-110
Angular grid pruning method      GridPruning ... 3 (G Style)
Weight generation scheme         WeightScheme... Becke
Basis function cutoff            BFCut       ...    1.0000e-10
Integration weight cutoff        WCut        ...    1.0000e-14
Grids for H and He will be reduced by one unit

# of grid points (after initial pruning)     ...   6548 (   0.0 sec)
# of grid points (after weights+screening)   ...   6409 (   0.0 sec)
nearest neighbour list constructed           ...    0.0 sec
Grid point re-assignment to atoms done       ...    0.0 sec
Grid point division into batches done        ...    0.0 sec
Reduced shell lists constructed in    0.3 sec

Total number of grid points                  ...     6409
Total number of batches                      ...      103
Average number of points per batch           ...       62
Average number of grid points per atom       ...     1068
Average number of shells per batch           ...    13.14 (65.72%)
Average number of basis functions per batch  ...    22.86 (63.49%)
Average number of large shells per batch     ...    10.47 (79.66%)
Average number of large basis fcns per batch ...    18.61 (81.41%)
Maximum spatial batch extension              ...  19.05, 19.29, 22.36 au
Average spatial batch extension              ...   4.68,  5.85,  5.83 au

Time for grid setup =    0.297 sec

------------------------------
INITIAL GUESS: MODEL POTENTIAL
------------------------------
Loading Hartree-Fock densities                     ... done
Calculating cut-offs                               ... done
Setting up the integral package                    ... done
Initializing the effective Hamiltonian             ... done
Starting the Coulomb interaction                   ... done (   0.0 sec)
Reading the grid                                   ... done
Mapping shells                                     ... done
Starting the XC term evaluation                    ... done (   0.1 sec)
  promolecular density results
     # of electrons  =     18.002999396
     EX              =    -14.307277884
     EC              =     -0.539731076
     EX+EC           =    -14.847008960
Transforming the Hamiltonian                       ... done (   0.0 sec)
Diagonalizing the Hamiltonian                      ... done (   0.0 sec)
Back transforming the eigenvectors                 ... done (   0.0 sec)
Now organizing SCF variables                       ... done
                      ------------------
                      INITIAL GUESS DONE (   0.7 sec)
                      ------------------
--------------
SCF ITERATIONS
--------------
ITER       Energy         Delta-E        Max-DP      RMS-DP      [F,P]   Gradient Norm
               ***  Starting incremental Fock matrix formation  ***
                             ****Resetting KDIIS****
                             ****Turning on KDIIS(Cayley)****
  0   -115.0600548626   0.000000000000 0.06251581  0.00405628  0.2481189   0.175925808
  1   -115.1459357175  -0.085880854853 0.04499981  0.00323378  0.1941102   0.136210461
  2   -115.1902504562  -0.044314738763 0.06629427  0.00487809  0.1572759   0.110461217
  3   -115.2406669884  -0.050416532163 0.09444563  0.00749688  0.0978979   0.069488757
  4   -115.2735340123  -0.032867023950 0.00143968  0.00014444  0.0116018   0.007999080
  5   -115.2733794437   0.000154568631 0.00911121  0.00065499  0.0124663   0.008572374
  6   -115.2737786524  -0.000399208675 0.01049651  0.00087848  0.0088008   0.006305317
  7   -115.2740146703  -0.000236017956 0.00974793  0.00093895  0.0053624   0.003865390
  8   -115.2742017679  -0.000187097581 0.00194429  0.00020266  0.0008694   0.000472880
  9   -115.2742057282  -0.000003960259 0.00126598  0.00012863  0.0002544   0.000191380
 10   -115.2742073535  -0.000001625321 0.00053480  0.00004659  0.0001412   0.000124434
                          ***Energy convergence achieved***
 11   -115.2742079274  -0.000000573920 0.00057105  0.00004719  0.0001602   0.000112612
 12   -115.2742072939   0.000000633496 0.00099190  0.00009941  0.0001161   0.000101563
 13   -115.2742079727  -0.000000678755 0.00032156  0.00002341  0.0001200   0.000088556
 14   -115.2742081502  -0.000000177546 0.00011118  0.00001051  0.0001223   0.000080451
 15   -115.2742080520   0.000000098233 0.00049852  0.00004487  0.0001220   0.000090227
 16   -115.2742083398  -0.000000287811 0.00030598  0.00002223  0.0001249   0.000070315
 17   -115.2742084864  -0.000000146611 0.00167818  0.00011900  0.0001269   0.000069372
 18   -115.2742077366   0.000000749847 0.00067370  0.00005020  0.0001166   0.000071555
 19   -115.2742080761  -0.000000339510 0.00195871  0.00013879  0.0001209   0.000070630
               *** Restarting incremental Fock matrix formation ***
                             ****Resetting KDIIS****

            ***Energy convergence in two consecutive cycles with***
                    ***'reasonable' density convergence***
                       *** signaling convergence ***

                    *** KDIIS BlockDiag ( 0.000 sec) ***

               *****************************************************
               *                     SUCCESS                       *
               *           SCF CONVERGED AFTER  20 CYCLES          *
               *****************************************************

Setting up the final grid:

General Integration Accuracy     IntAcc      ...  4.670
Radial Grid Type                 RadialGrid  ... Gauss-Chebyshev
Angular Grid (max. acc.)         AngularGrid ... Lebedev-302
Angular grid pruning method      GridPruning ... 3 (G Style)
Weight generation scheme         WeightScheme... Becke
Basis function cutoff            BFCut       ...    1.0000e-10
Integration weight cutoff        WCut        ...    1.0000e-14
Grids for H and He will be reduced by one unit

# of grid points (after initial pruning)     ...  26000 (   0.0 sec)
# of grid points (after weights+screening)   ...  25533 (   0.0 sec)
nearest neighbour list constructed           ...    0.0 sec
Grid point re-assignment to atoms done       ...    0.0 sec
Grid point division into batches done        ...    0.2 sec
Reduced shell lists constructed in    0.4 sec

Total number of grid points                  ...    25533
Total number of batches                      ...      402
Average number of points per batch           ...       63
Average number of grid points per atom       ...     4256
Average number of shells per batch           ...    11.65 (58.26%)
Average number of basis functions per batch  ...    20.23 (56.19%)
Average number of large shells per batch     ...     9.30 (79.83%)
Average number of large basis fcns per batch ...    16.61 (82.10%)
Maximum spatial batch extension              ...  20.16, 20.64, 20.64 au
Average spatial batch extension              ...   2.90,  3.46,  3.47 au

Final grid set up in    0.5 sec
Final integration                            ... done (   0.4 sec)
Change in XC energy                          ...    -0.000218914
Integrated number of electrons               ...    17.999991830
Previous integrated no of electrons          ...    17.995630550

----------------
TOTAL SCF ENERGY
----------------

Total Energy       :         -115.27442613 Eh           -3136.77661 eV

Components:
Nuclear Repulsion  :           22.81900075 Eh             620.93658 eV
Electronic Energy  :         -138.09342688 Eh           -3757.71318 eV
One Electron Energy:         -202.89512208 Eh           -5521.05696 eV
Two Electron Energy:           64.80169520 Eh            1763.34377 eV

Virial components:
Potential Energy   :         -230.10541275 Eh           -6261.48661 eV
Kinetic Energy     :          114.83098663 Eh            3124.71000 eV
Virial Ratio       :            2.00386167


DFT components:
N(Alpha)           :        8.999995914992 electrons
N(Beta)            :        8.999995914992 electrons
N(Total)           :       17.999991829984 electrons
E(XC)              :      -10.599669072789 Eh       

---------------
SCF CONVERGENCE
---------------

  Last Energy change         ...    8.6492e-07  Tolerance :   1.0000e-06
  Last MAX-Density change    ...    9.8129e-05  Tolerance :   1.0000e-05
  Last RMS-Density change    ...    7.4573e-06  Tolerance :   1.0000e-06
  Last DIIS Error            ...    1.0927e-04  Tolerance :   1.0000e-06

             **** THE GBW FILE WAS UPDATED (Scan_44.gbw) ****
             **** DENSITY FILE WAS UPDATED (Scan_44.scfp.tmp) ****
             **** ENERGY FILE WAS UPDATED (Scan_44.en.tmp) ****
----------------
ORBITAL ENERGIES
----------------

  NO   OCC          E(Eh)            E(eV) 
   0   2.0000     -18.867919      -513.4222 
   1   2.0000     -10.627355      -289.1850 
   2   2.0000      -1.052908       -28.6511 
   3   2.0000      -0.783375       -21.3167 
   4   2.0000      -0.773904       -21.0590 
   5   2.0000      -0.704379       -19.1671 
   6   2.0000      -0.197664        -5.3787 
   7   2.0000      -0.042625        -1.1599 
   8   2.0000      -0.042621        -1.1598 
   9   0.0000      -0.269571        -7.3354 
  10   0.0000       0.045953         1.2505 
  11   0.0000       0.090140         2.4528 
  12   0.0000       0.126798         3.4503 
  13   0.0000       0.425307        11.5732 
  14   0.0000       0.429707        11.6929 
  15   0.0000       0.438946        11.9443 
  16   0.0000       0.453500        12.3404 
  17   0.0000       0.581919        15.8348 
  18   0.0000       0.796848        21.6833 
  19   0.0000       0.813652        22.1406 
  20   0.0000       0.876294        23.8452 
  21   0.0000       1.230340        33.4793 
  22   0.0000       1.307130        35.5688 
  23   0.0000       1.307144        35.5692 
  24   0.0000       1.337361        36.3914 
  25   0.0000       1.468359        39.9561 
  26   0.0000       1.468605        39.9628 
  27   0.0000       1.693601        46.0852 
  28   0.0000       1.873070        50.9688 
  29   0.0000       2.028500        55.1983 
  30   0.0000       2.030197        55.2445 
  31   0.0000       2.197264        59.7906 
  32   0.0000       2.197274        59.7909 
  33   0.0000       2.263022        61.5800 
  34   0.0000       2.263390        61.5900 
  35   0.0000       2.901330        78.9492 

                    ********************************
                    * MULLIKEN POPULATION ANALYSIS *
                    ********************************

-----------------------
MULLIKEN ATOMIC CHARGES
-----------------------
   0 C :   -0.098139
   1 O :   -1.226945
   2 H :    0.338264
   3 H :    0.338242
   4 H :    0.416628
   5 H :    0.231950
Sum of atomic charges:   -0.0000000

--------------------------------
MULLIKEN REDUCED ORBITAL CHARGES
--------------------------------
  0 C s       :     3.545433  s :     3.545433
      pz      :     0.554125  p :     2.529852
      px      :     1.305293
      py      :     0.670434
      dz2     :     0.001719  d :     0.022854
      dxz     :     0.004506
      dyz     :     0.005487
      dx2y2   :     0.005669
      dxy     :     0.005472
  1 O s       :     3.923912  s :     3.923912
      pz      :     1.998538  p :     5.289385
      px      :     1.292235
      py      :     1.998612
      dz2     :     0.002755  d :     0.013649
      dxz     :     0.001315
      dyz     :     0.000000
      dx2y2   :     0.008267
      dxy     :     0.001312
  2 H s       :     0.661736  s :     0.661736
  3 H s       :     0.661758  s :     0.661758
  4 H s       :     0.583372  s :     0.583372
  5 H s       :     0.768050  s :     0.768050


                     *******************************
                     * LOEWDIN POPULATION ANALYSIS *
                     *******************************

----------------------
LOEWDIN ATOMIC CHARGES
----------------------
   0 C :    0.261864
   1 O :   -1.176940
   2 H :    0.231482
   3 H :    0.231420
   4 H :    0.271042
   5 H :    0.181132

-------------------------------
LOEWDIN REDUCED ORBITAL CHARGES
-------------------------------
  0 C s       :     3.194323  s :     3.194323
      pz      :     0.559161  p :     2.510893
      px      :     1.275169
      py      :     0.676563
      dz2     :     0.002364  d :     0.032921
      dxz     :     0.006970
      dyz     :     0.006921
      dx2y2   :     0.008210
      dxy     :     0.008456
  1 O s       :     3.787830  s :     3.787830
      pz      :     1.998548  p :     5.369139
      px      :     1.371976
      py      :     1.998615
      dz2     :     0.004334  d :     0.019971
      dxz     :     0.001317
      dyz     :     0.000000
      dx2y2   :     0.013007
      dxy     :     0.001313
  2 H s       :     0.768518  s :     0.768518
  3 H s       :     0.768580  s :     0.768580
  4 H s       :     0.728958  s :     0.728958
  5 H s       :     0.818868  s :     0.818868


                      *****************************
                      * MAYER POPULATION ANALYSIS *
                      *****************************

  NA   - Mulliken gross atomic population
  ZA   - Total nuclear charge
  QA   - Mulliken gross atomic charge
  VA   - Mayer's total valence
  BVA  - Mayer's bonded valence
  FA   - Mayer's free valence

  ATOM       NA         ZA         QA         VA         BVA        FA
  0 C      6.0981     6.0000    -0.0981     2.5385     2.5385    -0.0000
  1 O      9.2269     8.0000    -1.2269     0.9022     0.9022    -0.0000
  2 H      0.6617     1.0000     0.3383     0.8607     0.8607    -0.0000
  3 H      0.6618     1.0000     0.3382     0.8607     0.8607    -0.0000
  4 H      0.5834     1.0000     0.4166     0.8147     0.8147     0.0000
  5 H      0.7681     1.0000     0.2319     0.8959     0.8959     0.0000

  Mayer bond orders larger than 0.1
B(  0-C ,  2-H ) :   0.8656 B(  0-C ,  3-H ) :   0.8656 B(  0-C ,  4-H ) :   0.8084 
B(  1-O ,  5-H ) :   0.8940 

-------
TIMINGS
-------

Total SCF time: 0 days 0 hours 0 min 21 sec 

Total time                  ....      21.208 sec
Sum of individual times     ....      20.059 sec  ( 94.6%)

Fock matrix formation       ....      18.481 sec  ( 87.1%)
  XC integration            ....       4.587 sec  ( 24.8% of F)
    Basis function eval.    ....       1.226 sec  ( 26.7% of XC)
    Density eval.           ....       0.208 sec  (  4.5% of XC)
    XC-Functional eval.     ....       1.129 sec  ( 24.6% of XC)
    XC-Potential eval.      ....       0.074 sec  (  1.6% of XC)
Diagonalization             ....       0.158 sec  (  0.7%)
Density matrix formation    ....       0.000 sec  (  0.0%)
Population analysis         ....       0.146 sec  (  0.7%)
Initial guess               ....       0.446 sec  (  2.1%)
Orbital Transformation      ....       0.000 sec  (  0.0%)
Orbital Orthonormalization  ....       0.000 sec  (  0.0%)
DIIS solution               ....       0.000 sec  (  0.0%)
Grid generation             ....       0.827 sec  (  3.9%)


-------------------------------------------------------------------------------
                          DFT DISPERSION CORRECTION                            
                                                                               
                              DFTD3 V3.1  Rev 1                                
                              USING zero damping                               
-------------------------------------------------------------------------------
The omegaB97X-D3 functional is recognized. Fit by Chai et al.
Active option DFTDOPT                   ...         3   

molecular C6(AA) [au] = 243.649651 


            DFT-D V3
 parameters
 s6 scaling factor         :     1.0000 
 rs6 scaling factor        :     1.2810 
 s8 scaling factor         :     1.0000 
 rs8 scaling factor        :     1.0940 
 Damping factor alpha6     :    14.0000 
 Damping factor alpha8     :    16.0000 
 ad hoc parameters k1-k3   :    16.0000     1.3333    -4.0000 

 Edisp/kcal,au: -0.082045863535  -0.000130748392 
 E6   /kcal   :  -0.057925508 
 E8   /kcal   :  -0.024120356 
 % E8         :  29.398624870 

-------------------------   ----------------
Dispersion correction           -0.000130748
-------------------------   ----------------


-------------------------   --------------------
FINAL SINGLE POINT ENERGY      -115.274556874055
-------------------------   --------------------


                            ***************************************
                            *     ORCA property calculations      *
                            ***************************************

                                    ---------------------
                                    Active property flags
                                    ---------------------
   (+) Dipole Moment


------------------------------------------------------------------------------
                       ORCA ELECTRIC PROPERTIES CALCULATION
------------------------------------------------------------------------------

Dipole Moment Calculation                       ... on
Quadrupole Moment Calculation                   ... off
Polarizability Calculation                      ... off
GBWName                                         ... Scan_44.gbw
Electron density file                           ... Scan_44.scfp.tmp

-------------
DIPOLE MOMENT
-------------
                                X             Y             Z
Electronic contribution:     -4.32016       0.06307       0.09270
Nuclear contribution   :     -4.33683       0.07556       0.10673
                        -----------------------------------------
Total Dipole Moment    :     -8.65700       0.13863       0.19943
                        -----------------------------------------
Magnitude (a.u.)       :      8.66040
Magnitude (Debye)      :     22.01299


Timings for individual modules:

Sum of individual times         ...       22.447 sec (=   0.374 min)
GTO integral calculation        ...        1.107 sec (=   0.018 min)   4.9 %
SCF iterations                  ...       21.341 sec (=   0.356 min)  95.1 %
                             ****ORCA TERMINATED NORMALLY****
TOTAL RUN TIME: 0 days 0 hours 0 minutes 23 seconds 992 msec
