
                                 *****************
                                 * O   R   C   A *
                                 *****************

           --- An Ab Initio, DFT and Semiempirical electronic structure package ---

                  #######################################################
                  #                        -***-                        #
                  #  Department of molecular theory and spectroscopy    #
                  #              Directorship: Frank Neese              #
                  # Max Planck Institute for Chemical Energy Conversion #
                  #                  D-45470 Muelheim/Ruhr              #
                  #                       Germany                       #
                  #                                                     #
                  #                  All rights reserved                #
                  #                        -***-                        #
                  #######################################################


                         Program Version 4.0.0.2 - RELEASE -


 With contributions from (in alphabetic order):
   Daniel Aravena         : Magnetic Properties
   Michael Atanasov       : Ab Initio Ligand Field Theory
   Ute Becker             : Parallelization
   Martin Brehm           : Molecular dynamics
   Dmytro Bykov           : SCF Hessian
   Vijay G. Chilkuri      : MRCI spin determinant printing
   Dipayan Datta          : RHF DLPNO-CCSD density
   Achintya Kumar Dutta   : EOM-CC, STEOM-CC
   Dmitry Ganyushin       : Spin-Orbit,Spin-Spin,Magnetic field MRCI
   Yang Guo               : DLPNO-NEVPT2, CIM, IAO-localization
   Andreas Hansen         : Spin unrestricted coupled pair/coupled cluster methods
   Lee Huntington         : MR-EOM, pCC
   Robert Izsak           : Overlap fitted RIJCOSX, COSX-SCS-MP3, EOM
   Christian Kollmar      : KDIIS, OOCD, Brueckner-CCSD(T), CCSD density
   Simone Kossmann        : Meta GGA functionals, TD-DFT gradient, OOMP2, MP2 Hessian
   Martin Krupicka        : AUTO-CI
   Dagmar Lenk            : GEPOL surface
   Dimitrios Liakos       : Extrapolation schemes; parallel MDCI
   Dimitrios Manganas     : ROCIS; embedding schemes
   Dimitrios Pantazis     : SARC Basis sets
   Taras Petrenko         : DFT Hessian,TD-DFT gradient, ASA, ECA, R-Raman, ABS, FL, XAS/XES, NRVS
   Peter Pinski           : DLPNO-MP2
   Christoph Reimann      : Effective Core Potentials
   Marius Retegan         : Local ZFS, SOC
   Christoph Riplinger    : Optimizer, TS searches, QM/MM, DLPNO-CCSD(T), (RO)-DLPNO pert. Triples
   Tobias Risthaus        : Range-separated hybrids, TD-DFT gradient, RPA, STAB
   Michael Roemelt        : Restricted open shell CIS
   Masaaki Saitow         : Open-shell DLPNO
   Barbara Sandhoefer     : DKH picture change effects
   Kantharuban Sivalingam : CASSCF convergence, NEVPT2, FIC-MRCI
   Georgi Stoychev        : AutoAux
   Boris Wezisla          : Elementary symmetry handling
   Frank Wennmohs         : Technical directorship


 We gratefully acknowledge several colleagues who have allowed us to
 interface, adapt or use parts of their codes:
   Stefan Grimme, W. Hujo, H. Kruse,             : VdW corrections, initial TS optimization,
                  C. Bannwarth                     DFT functionals, gCP, sTDA/sTD-DF
   Ed Valeev                                     : LibInt (2-el integral package), F12 methods
   Garnet Chan, S. Sharma, J. Yang, R. Olivares  : DMRG
   Ulf Ekstrom                                   : XCFun DFT Library
   Mihaly Kallay                                 : mrcc  (arbitrary order and MRCC methods)
   Jiri Pittner, Ondrej Demel                    : Mk-CCSD
   Frank Weinhold                                : gennbo (NPA and NBO analysis)
   Christopher J. Cramer and Donald G. Truhlar   : smd solvation model


 Your calculation uses the libint2 library for the computation of 2-el integrals
 For citations please refer to: http://libint.valeyev.net

 This ORCA versions uses:
   CBLAS   interface :  Fast vector & matrix operations
   LAPACKE interface :  Fast linear algebra routines
   SCALAPACK package :  Parallel linear algebra routines


Your calculation utilizes the atom-pairwise dispersion correction
with the zero-damping scheme (D30)
Cite in your paper:
S.Grimme, J.Antony, S.Ehrlich and H.Krieg, J.Chem.Phys., 132, (2010), 154104 
   

XCFun DFT library Copyright 2009-2010 Ulf Ekstrom and contributors.
See http://admol.org/xcfun for more information. This is free soft-
ware; see the source code for copying conditions. There is ABSOLUTELY
NO WARRANTY; not even for MERCHANTABILITY or FITNESS FOR A PARTICULAR
PURPOSE. For details see the documentation. Scientific users of this 
library should cite U. Ekstrom, L. Visscher, R. Bast, A. J. Thorvald-
sen and K. Ruud; J.Chem.Theor.Comp. 2010, DOI: 10.1021/ct100117s
XCFun Version 0.99 
Your calculation utilizes the basis: 6-31G(d)
   H-He, Li-Ne : W. J. Hehre, R. Ditchfield and J.A. Pople, J. Chem. Phys. 56, 2257 (1972).
                 Note: He and Ne are unpublished basis sets taken from the Gaussian program.
                 Note: Li and B from J. D. Dill and J. A. Pople, J. Chem. Phys. 62, 2921 (1975).
   Na - Ar     : M. M. Francl, W. J. Pietro, W. J. Hehre, J. S. Binkley, M. S. Gordon, 
                 D. J. DeFrees and J. A. Pople, J. Chem. Phys. 77, 3654 (1982).
   K - Zn      : V. A. Rassolov, J. A. Pople, M. A. Ratner, and T. L. Windus, J. Chem. Phys. 109, 1223 (1998).

================================================================================
                                        WARNINGS
                       Please study these warnings very carefully!
================================================================================

Warning: TCutStore was < 0. Adjusted to Thresh (uncritical)

INFO   : the flag for use of LIBINT has been found!

================================================================================
                                       INPUT FILE
================================================================================
NAME = initial5.inp
|  1> ! WB97X-D3 6-31G(d) VerySlowConv
|  2> ! KDIIS NOSOSCF
|  3> %base "Scan_5"
|  4> 
|  5> %scf
|  6> maxiter 999
|  7> end
|  8> 
|  9> * xyz 0 1
| 10> C         -3.890105625755    2.346194037749    0.038083754942
| 11> O         -2.719796704333    2.244169567914   -0.080609245366
| 12> H         -4.340341079114    3.363045798259   -0.153657371895
| 13> H         -4.333896937185    2.055259161295    1.034010606716
| 14> H         -4.409083154240    1.687201162905   -0.684742595923
| 15> H         -2.193886499374    2.795760271879    0.523914851525
| 16> **                         ****END OF INPUT****
================================================================================

                       ****************************
                       * Single Point Calculation *
                       ****************************

---------------------------------
CARTESIAN COORDINATES (ANGSTROEM)
---------------------------------
  C     -3.890106    2.346194    0.038084
  O     -2.719797    2.244170   -0.080609
  H     -4.340341    3.363046   -0.153657
  H     -4.333897    2.055259    1.034011
  H     -4.409083    1.687201   -0.684743
  H     -2.193886    2.795760    0.523915

----------------------------
CARTESIAN COORDINATES (A.U.)
----------------------------
  NO LB      ZA    FRAG     MASS         X           Y           Z
   0 C     6.0000    0    12.011   -7.351234    4.433664    0.071968
   1 O     8.0000    0    15.999   -5.139671    4.240866   -0.152329
   2 H     1.0000    0     1.008   -8.202056    6.355236   -0.290370
   3 H     1.0000    0     1.008   -8.189878    3.883877    1.953997
   4 H     1.0000    0     1.008   -8.331960    3.188348   -1.293976
   5 H     1.0000    0     1.008   -4.145845    5.283221    0.990056

--------------------------------
INTERNAL COORDINATES (ANGSTROEM)
--------------------------------
 C      0   0   0     0.000000000000     0.00000000     0.00000000
 O      1   0   0     1.180728585377     0.00000000     0.00000000
 H      1   2   0     1.128478677705   117.14443187     0.00000000
 H      1   2   3     1.128478677035   117.14443192   236.80672115
 H      1   2   3     1.107288227009   110.33505577   118.40336054
 H      2   1   3     0.972770904223   115.11226146    61.59663947

---------------------------
INTERNAL COORDINATES (A.U.)
---------------------------
 C      0   0   0     0.000000000000     0.00000000     0.00000000
 O      1   0   0     2.231253664855     0.00000000     0.00000000
 H      1   2   0     2.132515648832   117.14443187     0.00000000
 H      1   2   3     2.132515647566   117.14443192   236.80672115
 H      1   2   3     2.092471500362   110.33505577   118.40336054
 H      2   1   3     1.838270600028   115.11226146    61.59663947

---------------------
BASIS SET INFORMATION
---------------------
There are 3 groups of distinct atoms

 Group   1 Type C   : 10s4p1d contracted to 3s2p1d pattern {631/31/1}
 Group   2 Type O   : 10s4p1d contracted to 3s2p1d pattern {631/31/1}
 Group   3 Type H   : 4s contracted to 2s pattern {31}

Atom   0C    basis set group =>   1
Atom   1O    basis set group =>   2
Atom   2H    basis set group =>   3
Atom   3H    basis set group =>   3
Atom   4H    basis set group =>   3
Atom   5H    basis set group =>   3
------------------------------------------------------------------------------
                           ORCA GTO INTEGRAL CALCULATION
------------------------------------------------------------------------------

                         BASIS SET STATISTICS AND STARTUP INFO

 # of primitive gaussian shells          ...   46
 # of primitive gaussian functions       ...   70
 # of contracted shells                  ...   20
 # of contracted basis functions         ...   36
 Highest angular momentum                ...    2
 Maximum contraction depth               ...    6
 Integral package used                   ... LIBINT
 Integral threshhold            Thresh   ...  1.000e-10
 Primitive cut-off              TCut     ...  1.000e-11


------------------------------ INTEGRAL EVALUATION ----------------------------


 * One electron integrals 
 Pre-screening matrix                    ... done
 Shell pair data                         ... done (   0.000 sec)

-------------------------------------------------------------------------------
                                 ORCA SCF
-------------------------------------------------------------------------------

------------
SCF SETTINGS
------------
Hamiltonian:
 Density Functional     Method          .... DFT(GTOs)
 Exchange Functional    Exchange        .... WB97X-D3
 Correlation Functional Correlation     .... WB97X-D3
 Gradients option       PostSCFGGA      .... off
 Hybrid DFT is turned on
   Fraction HF Exchange ScalHFX         ....  0.195728
   Scaling of DF-GGA-X  ScalDFX         ....  0.000000
   Scaling of DF-GGA-C  ScalDFC         ....  1.000000
   Scaling of DF-LDA-C  ScalLDAC        ....  1.000000
   Perturbative correction              ....  0.000000
 Long-range corrected/Screened/Range-Separated Hybrid DFT is turned on
   Amount of maximum screened exact exchange              ....  0.804272
   Range separation parameter mu (erf(mu*r12)/r12)        ....  0.250000


General Settings:
 Integral files         IntName         .... Scan_5
 Hartree-Fock type      HFTyp           .... RHF
 Total Charge           Charge          ....    0
 Multiplicity           Mult            ....    1
 Number of Electrons    NEL             ....   18
 Basis Dimension        Dim             ....   36
 Nuclear Repulsion      ENuc            ....     44.2019787754 Eh

Convergence Acceleration:
 DIIS                   CNVDIIS         .... on
   Start iteration      DIISMaxIt       ....     0
   Startup error        DIISStart       ....  0.200000
   # of expansion vecs  DIISMaxEq       ....     5
   Bias factor          DIISBfac        ....   1.050
   Max. coefficient     DIISMaxC        ....  10.000
 Newton-Raphson         CNVNR           .... off
 SOSCF                  CNVSOSCF        .... off
 Level Shifting         CNVShift        .... off
 Zerner damping         CNVZerner       .... off
 Static damping         CNVDamp         .... off
 Fernandez-Rico         CNVRico         .... off

SCF Procedure:
 Maximum # iterations   MaxIter         ....   999
 SCF integral mode      SCFMode         .... Direct
   Integral package                     .... LIBINT
 Reset frequeny         DirectResetFreq ....    20
 Integral Threshold     Thresh          ....  1.000e-10 Eh
 Primitive CutOff       TCut            ....  1.000e-11 Eh

Convergence Tolerance:
 Convergence Check Mode ConvCheckMode   .... All-Criteria
 Convergence forced     ConvForced      .... 0
 Energy Change          TolE            ....  1.000e-06 Eh
 Max Density Change     TolMaxP         ....  1.000e-05
 RMS Density Change     TolRMSP         ....  1.000e-06
 DIIS Error             TolErr          ....  1.000e-06


Diagonalization of the overlap matrix:
Smallest eigenvalue                        ... 1.101e-02
Time for diagonalization                   ...    0.001 sec
Threshold for overlap eigenvalues          ... 1.000e-08
Number of eigenvalues below threshold      ... 0
Time for construction of square roots      ...    0.005 sec
Total time needed                          ...    0.005 sec

-------------------
DFT GRID GENERATION
-------------------

General Integration Accuracy     IntAcc      ...  4.340
Radial Grid Type                 RadialGrid  ... Gauss-Chebyshev
Angular Grid (max. acc.)         AngularGrid ... Lebedev-110
Angular grid pruning method      GridPruning ... 3 (G Style)
Weight generation scheme         WeightScheme... Becke
Basis function cutoff            BFCut       ...    1.0000e-10
Integration weight cutoff        WCut        ...    1.0000e-14
Grids for H and He will be reduced by one unit

# of grid points (after initial pruning)     ...   6548 (   0.0 sec)
# of grid points (after weights+screening)   ...   6340 (   0.0 sec)
nearest neighbour list constructed           ...    0.0 sec
Grid point re-assignment to atoms done       ...    0.0 sec
Grid point division into batches done        ...    0.0 sec
Reduced shell lists constructed in    0.0 sec

Total number of grid points                  ...     6340
Total number of batches                      ...      102
Average number of points per batch           ...       62
Average number of grid points per atom       ...     1057
Average number of shells per batch           ...    17.78 (88.88%)
Average number of basis functions per batch  ...    32.36 (89.89%)
Average number of large shells per batch     ...    16.31 (91.75%)
Average number of large basis fcns per batch ...    30.14 (93.13%)
Maximum spatial batch extension              ...  19.49, 25.60, 21.59 au
Average spatial batch extension              ...   4.58,  4.68,  4.52 au

Time for grid setup =    0.047 sec

------------------------------
INITIAL GUESS: MODEL POTENTIAL
------------------------------
Loading Hartree-Fock densities                     ... done
Calculating cut-offs                               ... done
Setting up the integral package                    ... done
Initializing the effective Hamiltonian             ... done
Starting the Coulomb interaction                   ... done (   0.0 sec)
Reading the grid                                   ... done
Mapping shells                                     ... done
Starting the XC term evaluation                    ... done (   0.0 sec)
  promolecular density results
     # of electrons  =     17.992592764
     EX              =    -14.507912837
     EC              =     -0.585042729
     EX+EC           =    -15.092955566
Transforming the Hamiltonian                       ... done (   0.0 sec)
Diagonalizing the Hamiltonian                      ... done (   0.0 sec)
Back transforming the eigenvectors                 ... done (   0.0 sec)
Now organizing SCF variables                       ... done
                      ------------------
                      INITIAL GUESS DONE (   0.2 sec)
                      ------------------
--------------
SCF ITERATIONS
--------------
ITER       Energy         Delta-E        Max-DP      RMS-DP      [F,P]   Gradient Norm
               ***  Starting incremental Fock matrix formation  ***
                             ****Resetting KDIIS****
                             ****Turning on KDIIS(Cayley)****
  0   -115.5209695880   0.000000000000 0.03101072  0.00239588  0.1141229   0.115435329
  1   -115.5575755929  -0.036606004919 0.02318467  0.00196707  0.0912329   0.092324288
  2   -115.5802219018  -0.022646308872 0.03788094  0.00331097  0.0738873   0.075123622
  3   -115.6074314741  -0.027209572301 0.05555308  0.00517503  0.0447021   0.046561102
  4   -115.6245319611  -0.017100486951 0.00441148  0.00045433  0.0039355   0.003175080
  5   -115.6246447330  -0.000112771952 0.00573545  0.00048039  0.0014560   0.001040199
  6   -115.6246510117  -0.000006278676 0.00199934  0.00021341  0.0009383   0.000876126
  7   -115.6246604212  -0.000009409541 0.00057180  0.00004663  0.0002278   0.000161939
                          ***Energy convergence achieved***
  8   -115.6246608127  -0.000000391516 0.00002308  0.00000265  0.0000075   0.000009417
                           ***RMSP convergence achieved***
                           ***MAXP convergence achieved***
                    *** KDIIS BlockDiag ( 0.000 sec) ***

               *****************************************************
               *                     SUCCESS                       *
               *           SCF CONVERGED AFTER   9 CYCLES          *
               *****************************************************

Setting up the final grid:

General Integration Accuracy     IntAcc      ...  4.670
Radial Grid Type                 RadialGrid  ... Gauss-Chebyshev
Angular Grid (max. acc.)         AngularGrid ... Lebedev-302
Angular grid pruning method      GridPruning ... 3 (G Style)
Weight generation scheme         WeightScheme... Becke
Basis function cutoff            BFCut       ...    1.0000e-10
Integration weight cutoff        WCut        ...    1.0000e-14
Grids for H and He will be reduced by one unit

# of grid points (after initial pruning)     ...  26000 (   0.0 sec)
# of grid points (after weights+screening)   ...  25144 (   0.0 sec)
nearest neighbour list constructed           ...    0.0 sec
Grid point re-assignment to atoms done       ...    0.0 sec
Grid point division into batches done        ...    0.1 sec
Reduced shell lists constructed in    0.2 sec

Total number of grid points                  ...    25144
Total number of batches                      ...      396
Average number of points per batch           ...       63
Average number of grid points per atom       ...     4191
Average number of shells per batch           ...    16.40 (81.99%)
Average number of basis functions per batch  ...    30.01 (83.36%)
Average number of large shells per batch     ...    14.82 (90.35%)
Average number of large basis fcns per batch ...    27.48 (91.57%)
Maximum spatial batch extension              ...  18.00, 17.32, 16.88 au
Average spatial batch extension              ...   3.01,  3.03,  3.03 au

Final grid set up in    0.2 sec
Final integration                            ... done (   0.2 sec)
Change in XC energy                          ...    -0.000048258
Integrated number of electrons               ...    18.000003929
Previous integrated no of electrons          ...    17.997781067

----------------
TOTAL SCF ENERGY
----------------

Total Energy       :         -115.62470907 Eh           -3146.30829 eV

Components:
Nuclear Repulsion  :           44.20197878 Eh            1202.79699 eV
Electronic Energy  :         -159.82668785 Eh           -4349.10528 eV
One Electron Energy:         -244.27570635 Eh           -6647.07990 eV
Two Electron Energy:           84.44901850 Eh            2297.97462 eV

Virial components:
Potential Energy   :         -231.17001932 Eh           -6290.45603 eV
Kinetic Energy     :          115.54531025 Eh            3144.14774 eV
Virial Ratio       :            2.00068717


DFT components:
N(Alpha)           :        9.000001964483 electrons
N(Beta)            :        9.000001964483 electrons
N(Total)           :       18.000003928966 electrons
E(XC)              :      -10.739325989882 Eh       

---------------
SCF CONVERGENCE
---------------

  Last Energy change         ...   -1.0870e-09  Tolerance :   1.0000e-06
  Last MAX-Density change    ...    8.0393e-06  Tolerance :   1.0000e-05
  Last RMS-Density change    ...    6.8408e-07  Tolerance :   1.0000e-06
  Last DIIS Error            ...    2.0951e-06  Tolerance :   1.0000e-06

             **** THE GBW FILE WAS UPDATED (Scan_5.gbw) ****
             **** DENSITY FILE WAS UPDATED (Scan_5.scfp.tmp) ****
             **** ENERGY FILE WAS UPDATED (Scan_5.en.tmp) ****
----------------
ORBITAL ENERGIES
----------------

  NO   OCC          E(Eh)            E(eV) 
   0   2.0000     -19.250951      -523.8450 
   1   2.0000     -10.307055      -280.4692 
   2   2.0000      -1.225813       -33.3561 
   3   2.0000      -0.791100       -21.5269 
   4   2.0000      -0.653146       -17.7730 
   5   2.0000      -0.567984       -15.4556 
   6   2.0000      -0.563899       -15.3445 
   7   2.0000      -0.393072       -10.6960 
   8   2.0000      -0.343994        -9.3606 
   9   0.0000       0.167783         4.5656 
  10   0.0000       0.228700         6.2232 
  11   0.0000       0.272882         7.4255 
  12   0.0000       0.283161         7.7052 
  13   0.0000       0.365155         9.9364 
  14   0.0000       0.675103        18.3705 
  15   0.0000       0.683574        18.6010 
  16   0.0000       0.805481        21.9182 
  17   0.0000       0.860883        23.4258 
  18   0.0000       0.942010        25.6334 
  19   0.0000       0.984416        26.7873 
  20   0.0000       1.043609        28.3980 
  21   0.0000       1.075907        29.2769 
  22   0.0000       1.082761        29.4634 
  23   0.0000       1.142844        31.0984 
  24   0.0000       1.229861        33.4662 
  25   0.0000       1.627146        44.2769 
  26   0.0000       1.694009        46.0963 
  27   0.0000       1.775580        48.3160 
  28   0.0000       1.801686        49.0264 
  29   0.0000       2.083204        56.6869 
  30   0.0000       2.269812        61.7647 
  31   0.0000       2.516091        68.4663 
  32   0.0000       2.571228        69.9667 
  33   0.0000       2.723147        74.1006 
  34   0.0000       2.730644        74.3046 
  35   0.0000       3.066260        83.4372 

                    ********************************
                    * MULLIKEN POPULATION ANALYSIS *
                    ********************************

-----------------------
MULLIKEN ATOMIC CHARGES
-----------------------
   0 C :   -0.249851
   1 O :   -0.496633
   2 H :    0.088512
   3 H :    0.088707
   4 H :    0.145942
   5 H :    0.423323
Sum of atomic charges:   -0.0000000

--------------------------------
MULLIKEN REDUCED ORBITAL CHARGES
--------------------------------
  0 C s       :     3.201388  s :     3.201388
      pz      :     1.077119  p :     2.951237
      px      :     0.802230
      py      :     1.071888
      dz2     :     0.012736  d :     0.097226
      dxz     :     0.028644
      dyz     :     0.005352
      dx2y2   :     0.021127
      dxy     :     0.029369
  1 O s       :     3.746357  s :     3.746357
      pz      :     1.703466  p :     4.715940
      px      :     1.279653
      py      :     1.732821
      dz2     :     0.002685  d :     0.034337
      dxz     :     0.010668
      dyz     :     0.006838
      dx2y2   :     0.004270
      dxy     :     0.009875
  2 H s       :     0.911488  s :     0.911488
  3 H s       :     0.911293  s :     0.911293
  4 H s       :     0.854058  s :     0.854058
  5 H s       :     0.576677  s :     0.576677


                     *******************************
                     * LOEWDIN POPULATION ANALYSIS *
                     *******************************

----------------------
LOEWDIN ATOMIC CHARGES
----------------------
   0 C :   -0.291036
   1 O :   -0.283716
   2 H :    0.065860
   3 H :    0.065692
   4 H :    0.111767
   5 H :    0.331434

-------------------------------
LOEWDIN REDUCED ORBITAL CHARGES
-------------------------------
  0 C s       :     2.906842  s :     2.906842
      pz      :     1.103990  p :     3.160784
      px      :     0.955225
      py      :     1.101569
      dz2     :     0.026379  d :     0.223410
      dxz     :     0.070385
      dyz     :     0.008369
      dx2y2   :     0.046195
      dxy     :     0.072083
  1 O s       :     3.407473  s :     3.407473
      pz      :     1.687651  p :     4.790181
      px      :     1.387765
      py      :     1.714766
      dz2     :     0.006927  d :     0.086062
      dxz     :     0.028311
      dyz     :     0.007899
      dx2y2   :     0.016309
      dxy     :     0.026616
  2 H s       :     0.934140  s :     0.934140
  3 H s       :     0.934308  s :     0.934308
  4 H s       :     0.888233  s :     0.888233
  5 H s       :     0.668566  s :     0.668566


                      *****************************
                      * MAYER POPULATION ANALYSIS *
                      *****************************

  NA   - Mulliken gross atomic population
  ZA   - Total nuclear charge
  QA   - Mulliken gross atomic charge
  VA   - Mayer's total valence
  BVA  - Mayer's bonded valence
  FA   - Mayer's free valence

  ATOM       NA         ZA         QA         VA         BVA        FA
  0 C      6.2499     6.0000    -0.2499     3.8915     3.8915    -0.0000
  1 O      8.4966     8.0000    -0.4966     1.9101     1.9101     0.0000
  2 H      0.9115     1.0000     0.0885     0.9323     0.9323     0.0000
  3 H      0.9113     1.0000     0.0887     0.9321     0.9321    -0.0000
  4 H      0.8541     1.0000     0.1459     0.9316     0.9316     0.0000
  5 H      0.5767     1.0000     0.4233     0.7842     0.7842    -0.0000

  Mayer bond orders larger than 0.1
B(  0-C ,  1-O ) :   1.0922 B(  0-C ,  2-H ) :   0.9335 B(  0-C ,  3-H ) :   0.9334 
B(  0-C ,  4-H ) :   0.9381 B(  1-O ,  5-H ) :   0.7710 

-------
TIMINGS
-------

Total SCF time: 0 days 0 hours 0 min 3 sec 

Total time                  ....       3.879 sec
Sum of individual times     ....       3.733 sec  ( 96.2%)

Fock matrix formation       ....       3.282 sec  ( 84.6%)
  XC integration            ....       1.023 sec  ( 31.2% of F)
    Basis function eval.    ....       0.391 sec  ( 38.2% of XC)
    Density eval.           ....       0.047 sec  (  4.6% of XC)
    XC-Functional eval.     ....       0.256 sec  ( 25.0% of XC)
    XC-Potential eval.      ....       0.053 sec  (  5.1% of XC)
Diagonalization             ....       0.016 sec  (  0.4%)
Density matrix formation    ....       0.000 sec  (  0.0%)
Population analysis         ....       0.021 sec  (  0.5%)
Initial guess               ....       0.144 sec  (  3.7%)
Orbital Transformation      ....       0.000 sec  (  0.0%)
Orbital Orthonormalization  ....       0.000 sec  (  0.0%)
DIIS solution               ....       0.000 sec  (  0.0%)
Grid generation             ....       0.268 sec  (  6.9%)


-------------------------------------------------------------------------------
                          DFT DISPERSION CORRECTION                            
                                                                               
                              DFTD3 V3.1  Rev 1                                
                              USING zero damping                               
-------------------------------------------------------------------------------
The omegaB97X-D3 functional is recognized. Fit by Chai et al.
Active option DFTDOPT                   ...         3   

molecular C6(AA) [au] = 208.661260 


            DFT-D V3
 parameters
 s6 scaling factor         :     1.0000 
 rs6 scaling factor        :     1.2810 
 s8 scaling factor         :     1.0000 
 rs8 scaling factor        :     1.0940 
 Damping factor alpha6     :    14.0000 
 Damping factor alpha8     :    16.0000 
 ad hoc parameters k1-k3   :    16.0000     1.3333    -4.0000 

 Edisp/kcal,au: -0.122551339041  -0.000195297969 
 E6   /kcal   :  -0.024096602 
 E8   /kcal   :  -0.098454737 
 % E8         :  80.337545077 

-------------------------   ----------------
Dispersion correction           -0.000195298
-------------------------   ----------------


-------------------------   --------------------
FINAL SINGLE POINT ENERGY      -115.624904369523
-------------------------   --------------------


                            ***************************************
                            *     ORCA property calculations      *
                            ***************************************

                                    ---------------------
                                    Active property flags
                                    ---------------------
   (+) Dipole Moment


------------------------------------------------------------------------------
                       ORCA ELECTRIC PROPERTIES CALCULATION
------------------------------------------------------------------------------

Dipole Moment Calculation                       ... on
Quadrupole Moment Calculation                   ... off
Polarizability Calculation                      ... off
GBWName                                         ... Scan_5.gbw
Electron density file                           ... Scan_5.scfp.tmp

-------------
DIPOLE MOMENT
-------------
                                X             Y             Z
Electronic contribution:      2.13357      -0.24957      -0.28738
Nuclear contribution   :     -1.95209       0.61376       0.68643
                        -----------------------------------------
Total Dipole Moment    :      0.18148       0.36419       0.39904
                        -----------------------------------------
Magnitude (a.u.)       :      0.56992
Magnitude (Debye)      :      1.44861


Timings for individual modules:

Sum of individual times         ...        4.211 sec (=   0.070 min)
GTO integral calculation        ...        0.298 sec (=   0.005 min)   7.1 %
SCF iterations                  ...        3.913 sec (=   0.065 min)  92.9 %
                             ****ORCA TERMINATED NORMALLY****
TOTAL RUN TIME: 0 days 0 hours 0 minutes 4 seconds 544 msec
