
                                 *****************
                                 * O   R   C   A *
                                 *****************

           --- An Ab Initio, DFT and Semiempirical electronic structure package ---

                  #######################################################
                  #                        -***-                        #
                  #  Department of molecular theory and spectroscopy    #
                  #              Directorship: Frank Neese              #
                  # Max Planck Institute for Chemical Energy Conversion #
                  #                  D-45470 Muelheim/Ruhr              #
                  #                       Germany                       #
                  #                                                     #
                  #                  All rights reserved                #
                  #                        -***-                        #
                  #######################################################


                         Program Version 4.0.0.2 - RELEASE -


 With contributions from (in alphabetic order):
   Daniel Aravena         : Magnetic Properties
   Michael Atanasov       : Ab Initio Ligand Field Theory
   Ute Becker             : Parallelization
   Martin Brehm           : Molecular dynamics
   Dmytro Bykov           : SCF Hessian
   Vijay G. Chilkuri      : MRCI spin determinant printing
   Dipayan Datta          : RHF DLPNO-CCSD density
   Achintya Kumar Dutta   : EOM-CC, STEOM-CC
   Dmitry Ganyushin       : Spin-Orbit,Spin-Spin,Magnetic field MRCI
   Yang Guo               : DLPNO-NEVPT2, CIM, IAO-localization
   Andreas Hansen         : Spin unrestricted coupled pair/coupled cluster methods
   Lee Huntington         : MR-EOM, pCC
   Robert Izsak           : Overlap fitted RIJCOSX, COSX-SCS-MP3, EOM
   Christian Kollmar      : KDIIS, OOCD, Brueckner-CCSD(T), CCSD density
   Simone Kossmann        : Meta GGA functionals, TD-DFT gradient, OOMP2, MP2 Hessian
   Martin Krupicka        : AUTO-CI
   Dagmar Lenk            : GEPOL surface
   Dimitrios Liakos       : Extrapolation schemes; parallel MDCI
   Dimitrios Manganas     : ROCIS; embedding schemes
   Dimitrios Pantazis     : SARC Basis sets
   Taras Petrenko         : DFT Hessian,TD-DFT gradient, ASA, ECA, R-Raman, ABS, FL, XAS/XES, NRVS
   Peter Pinski           : DLPNO-MP2
   Christoph Reimann      : Effective Core Potentials
   Marius Retegan         : Local ZFS, SOC
   Christoph Riplinger    : Optimizer, TS searches, QM/MM, DLPNO-CCSD(T), (RO)-DLPNO pert. Triples
   Tobias Risthaus        : Range-separated hybrids, TD-DFT gradient, RPA, STAB
   Michael Roemelt        : Restricted open shell CIS
   Masaaki Saitow         : Open-shell DLPNO
   Barbara Sandhoefer     : DKH picture change effects
   Kantharuban Sivalingam : CASSCF convergence, NEVPT2, FIC-MRCI
   Georgi Stoychev        : AutoAux
   Boris Wezisla          : Elementary symmetry handling
   Frank Wennmohs         : Technical directorship


 We gratefully acknowledge several colleagues who have allowed us to
 interface, adapt or use parts of their codes:
   Stefan Grimme, W. Hujo, H. Kruse,             : VdW corrections, initial TS optimization,
                  C. Bannwarth                     DFT functionals, gCP, sTDA/sTD-DF
   Ed Valeev                                     : LibInt (2-el integral package), F12 methods
   Garnet Chan, S. Sharma, J. Yang, R. Olivares  : DMRG
   Ulf Ekstrom                                   : XCFun DFT Library
   Mihaly Kallay                                 : mrcc  (arbitrary order and MRCC methods)
   Jiri Pittner, Ondrej Demel                    : Mk-CCSD
   Frank Weinhold                                : gennbo (NPA and NBO analysis)
   Christopher J. Cramer and Donald G. Truhlar   : smd solvation model


 Your calculation uses the libint2 library for the computation of 2-el integrals
 For citations please refer to: http://libint.valeyev.net

 This ORCA versions uses:
   CBLAS   interface :  Fast vector & matrix operations
   LAPACKE interface :  Fast linear algebra routines
   SCALAPACK package :  Parallel linear algebra routines


Your calculation utilizes the atom-pairwise dispersion correction
with the zero-damping scheme (D30)
Cite in your paper:
S.Grimme, J.Antony, S.Ehrlich and H.Krieg, J.Chem.Phys., 132, (2010), 154104 
   

XCFun DFT library Copyright 2009-2010 Ulf Ekstrom and contributors.
See http://admol.org/xcfun for more information. This is free soft-
ware; see the source code for copying conditions. There is ABSOLUTELY
NO WARRANTY; not even for MERCHANTABILITY or FITNESS FOR A PARTICULAR
PURPOSE. For details see the documentation. Scientific users of this 
library should cite U. Ekstrom, L. Visscher, R. Bast, A. J. Thorvald-
sen and K. Ruud; J.Chem.Theor.Comp. 2010, DOI: 10.1021/ct100117s
XCFun Version 0.99 
Your calculation utilizes the basis: 6-31G(d)
   H-He, Li-Ne : W. J. Hehre, R. Ditchfield and J.A. Pople, J. Chem. Phys. 56, 2257 (1972).
                 Note: He and Ne are unpublished basis sets taken from the Gaussian program.
                 Note: Li and B from J. D. Dill and J. A. Pople, J. Chem. Phys. 62, 2921 (1975).
   Na - Ar     : M. M. Francl, W. J. Pietro, W. J. Hehre, J. S. Binkley, M. S. Gordon, 
                 D. J. DeFrees and J. A. Pople, J. Chem. Phys. 77, 3654 (1982).
   K - Zn      : V. A. Rassolov, J. A. Pople, M. A. Ratner, and T. L. Windus, J. Chem. Phys. 109, 1223 (1998).

================================================================================
                                        WARNINGS
                       Please study these warnings very carefully!
================================================================================

Warning: TCutStore was < 0. Adjusted to Thresh (uncritical)

INFO   : the flag for use of LIBINT has been found!

================================================================================
                                       INPUT FILE
================================================================================
NAME = initial6.inp
|  1> ! WB97X-D3 6-31G(d) VerySlowConv
|  2> ! KDIIS NOSOSCF
|  3> %base "Scan_6"
|  4> 
|  5> %scf
|  6> maxiter 999
|  7> end
|  8> 
|  9> * xyz 0 1
| 10> C         -3.907131631759    2.346892724053    0.038945486234
| 11> O         -2.701953916180    2.241885685500   -0.083220928216
| 12> H         -4.339679706234    3.363311140704   -0.153998534706
| 13> H         -4.333232475640    2.054897670519    1.034238703149
| 14> H         -4.413143408184    1.686308896731   -0.685703073974
| 15> H         -2.191968862004    2.798333882494    0.526738347513
| 16> **                         ****END OF INPUT****
================================================================================

                       ****************************
                       * Single Point Calculation *
                       ****************************

---------------------------------
CARTESIAN COORDINATES (ANGSTROEM)
---------------------------------
  C     -3.907132    2.346893    0.038945
  O     -2.701954    2.241886   -0.083221
  H     -4.339680    3.363311   -0.153999
  H     -4.333232    2.054898    1.034239
  H     -4.413143    1.686309   -0.685703
  H     -2.191969    2.798334    0.526738

----------------------------
CARTESIAN COORDINATES (A.U.)
----------------------------
  NO LB      ZA    FRAG     MASS         X           Y           Z
   0 C     6.0000    0    12.011   -7.383409    4.434985    0.073596
   1 O     8.0000    0    15.999   -5.105953    4.236550   -0.157265
   2 H     1.0000    0     1.008   -8.200806    6.355737   -0.291015
   3 H     1.0000    0     1.008   -8.188623    3.883194    1.954428
   4 H     1.0000    0     1.008   -8.339632    3.186662   -1.295791
   5 H     1.0000    0     1.008   -4.142221    5.288085    0.995391

--------------------------------
INTERNAL COORDINATES (ANGSTROEM)
--------------------------------
 C      0   0   0     0.000000000000     0.00000000     0.00000000
 O      1   0   0     1.215896556905     0.00000000     0.00000000
 H      1   2   0     1.121352589356   116.31651269     0.00000000
 H      1   2   3     1.121352588654   116.31651273   236.90480607
 H      1   2   3     1.103419433675   109.68542427   118.45240301
 H      2   1   3     0.970448179693   114.09253281    61.54759698

---------------------------
INTERNAL COORDINATES (A.U.)
---------------------------
 C      0   0   0     0.000000000000     0.00000000     0.00000000
 O      1   0   0     2.297711499728     0.00000000     0.00000000
 H      1   2   0     2.119049293447   116.31651269     0.00000000
 H      1   2   3     2.119049292120   116.31651273   236.90480607
 H      1   2   3     2.085160540492   109.68542427   118.45240301
 H      2   1   3     1.833881286781   114.09253281    61.54759698

---------------------
BASIS SET INFORMATION
---------------------
There are 3 groups of distinct atoms

 Group   1 Type C   : 10s4p1d contracted to 3s2p1d pattern {631/31/1}
 Group   2 Type O   : 10s4p1d contracted to 3s2p1d pattern {631/31/1}
 Group   3 Type H   : 4s contracted to 2s pattern {31}

Atom   0C    basis set group =>   1
Atom   1O    basis set group =>   2
Atom   2H    basis set group =>   3
Atom   3H    basis set group =>   3
Atom   4H    basis set group =>   3
Atom   5H    basis set group =>   3
------------------------------------------------------------------------------
                           ORCA GTO INTEGRAL CALCULATION
------------------------------------------------------------------------------

                         BASIS SET STATISTICS AND STARTUP INFO

 # of primitive gaussian shells          ...   46
 # of primitive gaussian functions       ...   70
 # of contracted shells                  ...   20
 # of contracted basis functions         ...   36
 Highest angular momentum                ...    2
 Maximum contraction depth               ...    6
 Integral package used                   ... LIBINT
 Integral threshhold            Thresh   ...  1.000e-10
 Primitive cut-off              TCut     ...  1.000e-11


------------------------------ INTEGRAL EVALUATION ----------------------------


 * One electron integrals 
 Pre-screening matrix                    ... done
 Shell pair data                         ... done (   0.000 sec)

-------------------------------------------------------------------------------
                                 ORCA SCF
-------------------------------------------------------------------------------

------------
SCF SETTINGS
------------
Hamiltonian:
 Density Functional     Method          .... DFT(GTOs)
 Exchange Functional    Exchange        .... WB97X-D3
 Correlation Functional Correlation     .... WB97X-D3
 Gradients option       PostSCFGGA      .... off
 Hybrid DFT is turned on
   Fraction HF Exchange ScalHFX         ....  0.195728
   Scaling of DF-GGA-X  ScalDFX         ....  0.000000
   Scaling of DF-GGA-C  ScalDFC         ....  1.000000
   Scaling of DF-LDA-C  ScalLDAC        ....  1.000000
   Perturbative correction              ....  0.000000
 Long-range corrected/Screened/Range-Separated Hybrid DFT is turned on
   Amount of maximum screened exact exchange              ....  0.804272
   Range separation parameter mu (erf(mu*r12)/r12)        ....  0.250000


General Settings:
 Integral files         IntName         .... Scan_6
 Hartree-Fock type      HFTyp           .... RHF
 Total Charge           Charge          ....    0
 Multiplicity           Mult            ....    1
 Number of Electrons    NEL             ....   18
 Basis Dimension        Dim             ....   36
 Nuclear Repulsion      ENuc            ....     43.5609602196 Eh

Convergence Acceleration:
 DIIS                   CNVDIIS         .... on
   Start iteration      DIISMaxIt       ....     0
   Startup error        DIISStart       ....  0.200000
   # of expansion vecs  DIISMaxEq       ....     5
   Bias factor          DIISBfac        ....   1.050
   Max. coefficient     DIISMaxC        ....  10.000
 Newton-Raphson         CNVNR           .... off
 SOSCF                  CNVSOSCF        .... off
 Level Shifting         CNVShift        .... off
 Zerner damping         CNVZerner       .... off
 Static damping         CNVDamp         .... off
 Fernandez-Rico         CNVRico         .... off

SCF Procedure:
 Maximum # iterations   MaxIter         ....   999
 SCF integral mode      SCFMode         .... Direct
   Integral package                     .... LIBINT
 Reset frequeny         DirectResetFreq ....    20
 Integral Threshold     Thresh          ....  1.000e-10 Eh
 Primitive CutOff       TCut            ....  1.000e-11 Eh

Convergence Tolerance:
 Convergence Check Mode ConvCheckMode   .... All-Criteria
 Convergence forced     ConvForced      .... 0
 Energy Change          TolE            ....  1.000e-06 Eh
 Max Density Change     TolMaxP         ....  1.000e-05
 RMS Density Change     TolRMSP         ....  1.000e-06
 DIIS Error             TolErr          ....  1.000e-06


Diagonalization of the overlap matrix:
Smallest eigenvalue                        ... 1.156e-02
Time for diagonalization                   ...    0.001 sec
Threshold for overlap eigenvalues          ... 1.000e-08
Number of eigenvalues below threshold      ... 0
Time for construction of square roots      ...    0.005 sec
Total time needed                          ...    0.005 sec

-------------------
DFT GRID GENERATION
-------------------

General Integration Accuracy     IntAcc      ...  4.340
Radial Grid Type                 RadialGrid  ... Gauss-Chebyshev
Angular Grid (max. acc.)         AngularGrid ... Lebedev-110
Angular grid pruning method      GridPruning ... 3 (G Style)
Weight generation scheme         WeightScheme... Becke
Basis function cutoff            BFCut       ...    1.0000e-10
Integration weight cutoff        WCut        ...    1.0000e-14
Grids for H and He will be reduced by one unit

# of grid points (after initial pruning)     ...   6548 (   0.0 sec)
# of grid points (after weights+screening)   ...   6343 (   0.0 sec)
nearest neighbour list constructed           ...    0.0 sec
Grid point re-assignment to atoms done       ...    0.0 sec
Grid point division into batches done        ...    0.0 sec
Reduced shell lists constructed in    0.0 sec

Total number of grid points                  ...     6343
Total number of batches                      ...      102
Average number of points per batch           ...       62
Average number of grid points per atom       ...     1057
Average number of shells per batch           ...    17.78 (88.88%)
Average number of basis functions per batch  ...    32.36 (89.89%)
Average number of large shells per batch     ...    16.29 (91.64%)
Average number of large basis fcns per batch ...    30.17 (93.25%)
Maximum spatial batch extension              ...  19.49, 25.60, 21.59 au
Average spatial batch extension              ...   4.64,  4.65,  4.52 au

Time for grid setup =    0.048 sec

------------------------------
INITIAL GUESS: MODEL POTENTIAL
------------------------------
Loading Hartree-Fock densities                     ... done
Calculating cut-offs                               ... done
Setting up the integral package                    ... done
Initializing the effective Hamiltonian             ... done
Starting the Coulomb interaction                   ... done (   0.0 sec)
Reading the grid                                   ... done
Mapping shells                                     ... done
Starting the XC term evaluation                    ... done (   0.0 sec)
  promolecular density results
     # of electrons  =     17.992346037
     EX              =    -14.493908871
     EC              =     -0.583589301
     EX+EC           =    -15.077498172
Transforming the Hamiltonian                       ... done (   0.0 sec)
Diagonalizing the Hamiltonian                      ... done (   0.0 sec)
Back transforming the eigenvectors                 ... done (   0.0 sec)
Now organizing SCF variables                       ... done
                      ------------------
                      INITIAL GUESS DONE (   0.2 sec)
                      ------------------
--------------
SCF ITERATIONS
--------------
ITER       Energy         Delta-E        Max-DP      RMS-DP      [F,P]   Gradient Norm
               ***  Starting incremental Fock matrix formation  ***
                             ****Resetting KDIIS****
                             ****Turning on KDIIS(Cayley)****
  0   -115.5438523808   0.000000000000 0.03030371  0.00232168  0.1131779   0.112664920
  1   -115.5784943215  -0.034641940638 0.02253526  0.00191076  0.0905944   0.090239811
  2   -115.6001508466  -0.021656525170 0.03726219  0.00321655  0.0734809   0.073429370
  3   -115.6261889836  -0.026038137009 0.05429080  0.00499477  0.0443806   0.045392841
  4   -115.6424714991  -0.016282515443 0.00392192  0.00038900  0.0041440   0.003173834
  5   -115.6425765336  -0.000105034534 0.00702245  0.00059449  0.0020855   0.001491959
  6   -115.6426017084  -0.000025174817 0.00182596  0.00019321  0.0008336   0.000759861
  7   -115.6426089591  -0.000007250706 0.00051343  0.00004187  0.0001993   0.000137512
                          ***Energy convergence achieved***
  8   -115.6426092433  -0.000000284171 0.00001414  0.00000197  0.0000051   0.000006735
                           ***RMSP convergence achieved***
                           ***MAXP convergence achieved***
                    *** KDIIS BlockDiag ( 0.000 sec) ***

               *****************************************************
               *                     SUCCESS                       *
               *           SCF CONVERGED AFTER   9 CYCLES          *
               *****************************************************

Setting up the final grid:

General Integration Accuracy     IntAcc      ...  4.670
Radial Grid Type                 RadialGrid  ... Gauss-Chebyshev
Angular Grid (max. acc.)         AngularGrid ... Lebedev-302
Angular grid pruning method      GridPruning ... 3 (G Style)
Weight generation scheme         WeightScheme... Becke
Basis function cutoff            BFCut       ...    1.0000e-10
Integration weight cutoff        WCut        ...    1.0000e-14
Grids for H and He will be reduced by one unit

# of grid points (after initial pruning)     ...  26000 (   0.0 sec)
# of grid points (after weights+screening)   ...  25143 (   0.0 sec)
nearest neighbour list constructed           ...    0.0 sec
Grid point re-assignment to atoms done       ...    0.0 sec
Grid point division into batches done        ...    0.1 sec
Reduced shell lists constructed in    0.2 sec

Total number of grid points                  ...    25143
Total number of batches                      ...      397
Average number of points per batch           ...       63
Average number of grid points per atom       ...     4190
Average number of shells per batch           ...    16.39 (81.97%)
Average number of basis functions per batch  ...    30.00 (83.34%)
Average number of large shells per batch     ...    14.81 (90.31%)
Average number of large basis fcns per batch ...    27.47 (91.56%)
Maximum spatial batch extension              ...  18.03, 17.32, 16.88 au
Average spatial batch extension              ...   3.00,  3.03,  3.02 au

Final grid set up in    0.2 sec
Final integration                            ... done (   0.2 sec)
Change in XC energy                          ...    -0.000017004
Integrated number of electrons               ...    18.000007302
Previous integrated no of electrons          ...    17.997554495

----------------
TOTAL SCF ENERGY
----------------

Total Energy       :         -115.64262625 Eh           -3146.79584 eV

Components:
Nuclear Repulsion  :           43.56096022 Eh            1185.35399 eV
Electronic Energy  :         -159.20358647 Eh           -4332.14983 eV
One Electron Energy:         -243.11482262 Eh           -6615.49065 eV
Two Electron Energy:           83.91123616 Eh            2283.34082 eV

Virial components:
Potential Energy   :         -231.07207153 Eh           -6287.79073 eV
Kinetic Energy     :          115.42944528 Eh            3140.99489 eV
Virial Ratio       :            2.00184685


DFT components:
N(Alpha)           :        9.000003650910 electrons
N(Beta)            :        9.000003650910 electrons
N(Total)           :       18.000007301821 electrons
E(XC)              :      -10.724242646509 Eh       

---------------
SCF CONVERGENCE
---------------

  Last Energy change         ...   -5.5246e-10  Tolerance :   1.0000e-06
  Last MAX-Density change    ...    6.0153e-06  Tolerance :   1.0000e-05
  Last RMS-Density change    ...    4.7329e-07  Tolerance :   1.0000e-06
  Last DIIS Error            ...    1.4448e-06  Tolerance :   1.0000e-06

             **** THE GBW FILE WAS UPDATED (Scan_6.gbw) ****
             **** DENSITY FILE WAS UPDATED (Scan_6.scfp.tmp) ****
             **** ENERGY FILE WAS UPDATED (Scan_6.en.tmp) ****
----------------
ORBITAL ENERGIES
----------------

  NO   OCC          E(Eh)            E(eV) 
   0   2.0000     -19.247804      -523.7594 
   1   2.0000     -10.307093      -280.4702 
   2   2.0000      -1.207002       -32.8442 
   3   2.0000      -0.789296       -21.4778 
   4   2.0000      -0.646433       -17.5903 
   5   2.0000      -0.559910       -15.2359 
   6   2.0000      -0.554806       -15.0970 
   7   2.0000      -0.399040       -10.8584 
   8   2.0000      -0.347864        -9.4659 
   9   0.0000       0.171057         4.6547 
  10   0.0000       0.229814         6.2536 
  11   0.0000       0.271270         7.3816 
  12   0.0000       0.280839         7.6420 
  13   0.0000       0.360286         9.8039 
  14   0.0000       0.675325        18.3765 
  15   0.0000       0.684538        18.6272 
  16   0.0000       0.774361        21.0714 
  17   0.0000       0.862129        23.4597 
  18   0.0000       0.946213        25.7478 
  19   0.0000       0.985288        26.8111 
  20   0.0000       1.041787        28.3485 
  21   0.0000       1.077157        29.3109 
  22   0.0000       1.088824        29.6284 
  23   0.0000       1.136314        30.9207 
  24   0.0000       1.231195        33.5025 
  25   0.0000       1.623568        44.1795 
  26   0.0000       1.682695        45.7885 
  27   0.0000       1.769925        48.1621 
  28   0.0000       1.803360        49.0719 
  29   0.0000       2.104685        57.2714 
  30   0.0000       2.265118        61.6370 
  31   0.0000       2.469813        67.2070 
  32   0.0000       2.551171        69.4209 
  33   0.0000       2.688126        73.1476 
  34   0.0000       2.697049        73.3904 
  35   0.0000       3.027416        82.3802 

                    ********************************
                    * MULLIKEN POPULATION ANALYSIS *
                    ********************************

-----------------------
MULLIKEN ATOMIC CHARGES
-----------------------
   0 C :   -0.242615
   1 O :   -0.529643
   2 H :    0.099504
   3 H :    0.099700
   4 H :    0.152031
   5 H :    0.421022
Sum of atomic charges:    0.0000000

--------------------------------
MULLIKEN REDUCED ORBITAL CHARGES
--------------------------------
  0 C s       :     3.203772  s :     3.203772
      pz      :     1.082139  p :     2.947781
      px      :     0.788512
      py      :     1.077130
      dz2     :     0.012533  d :     0.091062
      dxz     :     0.025940
      dyz     :     0.005412
      dx2y2   :     0.020595
      dxy     :     0.026582
  1 O s       :     3.768087  s :     3.768087
      pz      :     1.708055  p :     4.728686
      px      :     1.281528
      py      :     1.739103
      dz2     :     0.002756  d :     0.032869
      dxz     :     0.009746
      dyz     :     0.007003
      dx2y2   :     0.004382
      dxy     :     0.008983
  2 H s       :     0.900496  s :     0.900496
  3 H s       :     0.900300  s :     0.900300
  4 H s       :     0.847969  s :     0.847969
  5 H s       :     0.578978  s :     0.578978


                     *******************************
                     * LOEWDIN POPULATION ANALYSIS *
                     *******************************

----------------------
LOEWDIN ATOMIC CHARGES
----------------------
   0 C :   -0.280718
   1 O :   -0.312389
   2 H :    0.074472
   3 H :    0.074277
   4 H :    0.115978
   5 H :    0.328379

-------------------------------
LOEWDIN REDUCED ORBITAL CHARGES
-------------------------------
  0 C s       :     2.915826  s :     2.915826
      pz      :     1.111837  p :     3.160537
      px      :     0.939142
      py      :     1.109558
      dz2     :     0.025690  d :     0.204355
      dxz     :     0.062035
      dyz     :     0.008607
      dx2y2   :     0.044495
      dxy     :     0.063528
  1 O s       :     3.431423  s :     3.431423
      pz      :     1.696656  p :     4.802580
      px      :     1.380514
      py      :     1.725410
      dz2     :     0.006562  d :     0.078386
      dxz     :     0.025021
      dyz     :     0.008196
      dx2y2   :     0.015164
      dxy     :     0.023443
  2 H s       :     0.925528  s :     0.925528
  3 H s       :     0.925723  s :     0.925723
  4 H s       :     0.884022  s :     0.884022
  5 H s       :     0.671621  s :     0.671621


                      *****************************
                      * MAYER POPULATION ANALYSIS *
                      *****************************

  NA   - Mulliken gross atomic population
  ZA   - Total nuclear charge
  QA   - Mulliken gross atomic charge
  VA   - Mayer's total valence
  BVA  - Mayer's bonded valence
  FA   - Mayer's free valence

  ATOM       NA         ZA         QA         VA         BVA        FA
  0 C      6.2426     6.0000    -0.2426     3.8702     3.8702     0.0000
  1 O      8.5296     8.0000    -0.5296     1.8764     1.8764     0.0000
  2 H      0.9005     1.0000     0.0995     0.9315     0.9315     0.0000
  3 H      0.9003     1.0000     0.0997     0.9313     0.9313     0.0000
  4 H      0.8480     1.0000     0.1520     0.9314     0.9314    -0.0000
  5 H      0.5790     1.0000     0.4210     0.7863     0.7863     0.0000

  Mayer bond orders larger than 0.1
B(  0-C ,  1-O ) :   1.0618 B(  0-C ,  2-H ) :   0.9357 B(  0-C ,  3-H ) :   0.9356 
B(  0-C ,  4-H ) :   0.9417 B(  1-O ,  5-H ) :   0.7750 

-------
TIMINGS
-------

Total SCF time: 0 days 0 hours 0 min 3 sec 

Total time                  ....       3.850 sec
Sum of individual times     ....       3.701 sec  ( 96.1%)

Fock matrix formation       ....       3.269 sec  ( 84.9%)
  XC integration            ....       1.036 sec  ( 31.7% of F)
    Basis function eval.    ....       0.389 sec  ( 37.6% of XC)
    Density eval.           ....       0.048 sec  (  4.7% of XC)
    XC-Functional eval.     ....       0.255 sec  ( 24.6% of XC)
    XC-Potential eval.      ....       0.053 sec  (  5.1% of XC)
Diagonalization             ....       0.006 sec  (  0.2%)
Density matrix formation    ....       0.000 sec  (  0.0%)
Population analysis         ....       0.015 sec  (  0.4%)
Initial guess               ....       0.141 sec  (  3.7%)
Orbital Transformation      ....       0.000 sec  (  0.0%)
Orbital Orthonormalization  ....       0.000 sec  (  0.0%)
DIIS solution               ....       0.000 sec  (  0.0%)
Grid generation             ....       0.270 sec  (  7.0%)


-------------------------------------------------------------------------------
                          DFT DISPERSION CORRECTION                            
                                                                               
                              DFTD3 V3.1  Rev 1                                
                              USING zero damping                               
-------------------------------------------------------------------------------
The omegaB97X-D3 functional is recognized. Fit by Chai et al.
Active option DFTDOPT                   ...         3   

molecular C6(AA) [au] = 208.659001 


            DFT-D V3
 parameters
 s6 scaling factor         :     1.0000 
 rs6 scaling factor        :     1.2810 
 s8 scaling factor         :     1.0000 
 rs8 scaling factor        :     1.0940 
 Damping factor alpha6     :    14.0000 
 Damping factor alpha8     :    16.0000 
 ad hoc parameters k1-k3   :    16.0000     1.3333    -4.0000 

 Edisp/kcal,au: -0.125404047752  -0.000199844049 
 E6   /kcal   :  -0.024677211 
 E8   /kcal   :  -0.100726837 
 % E8         :  80.321838694 

-------------------------   ----------------
Dispersion correction           -0.000199844
-------------------------   ----------------


-------------------------   --------------------
FINAL SINGLE POINT ENERGY      -115.642826091442
-------------------------   --------------------


                            ***************************************
                            *     ORCA property calculations      *
                            ***************************************

                                    ---------------------
                                    Active property flags
                                    ---------------------
   (+) Dipole Moment


------------------------------------------------------------------------------
                       ORCA ELECTRIC PROPERTIES CALCULATION
------------------------------------------------------------------------------

Dipole Moment Calculation                       ... on
Quadrupole Moment Calculation                   ... off
Polarizability Calculation                      ... off
GBWName                                         ... Scan_6.gbw
Electron density file                           ... Scan_6.scfp.tmp

-------------
DIPOLE MOMENT
-------------
                                X             Y             Z
Electronic contribution:      2.05665      -0.24309      -0.27990
Nuclear contribution   :     -1.96202       0.61833       0.69152
                        -----------------------------------------
Total Dipole Moment    :      0.09463       0.37525       0.41161
                        -----------------------------------------
Magnitude (a.u.)       :      0.56497
Magnitude (Debye)      :      1.43604


Timings for individual modules:

Sum of individual times         ...        4.179 sec (=   0.070 min)
GTO integral calculation        ...        0.294 sec (=   0.005 min)   7.0 %
SCF iterations                  ...        3.885 sec (=   0.065 min)  93.0 %
                             ****ORCA TERMINATED NORMALLY****
TOTAL RUN TIME: 0 days 0 hours 0 minutes 4 seconds 515 msec
