
                                 *****************
                                 * O   R   C   A *
                                 *****************

           --- An Ab Initio, DFT and Semiempirical electronic structure package ---

                  #######################################################
                  #                        -***-                        #
                  #  Department of molecular theory and spectroscopy    #
                  #              Directorship: Frank Neese              #
                  # Max Planck Institute for Chemical Energy Conversion #
                  #                  D-45470 Muelheim/Ruhr              #
                  #                       Germany                       #
                  #                                                     #
                  #                  All rights reserved                #
                  #                        -***-                        #
                  #######################################################


                         Program Version 4.0.0.2 - RELEASE -


 With contributions from (in alphabetic order):
   Daniel Aravena         : Magnetic Properties
   Michael Atanasov       : Ab Initio Ligand Field Theory
   Ute Becker             : Parallelization
   Martin Brehm           : Molecular dynamics
   Dmytro Bykov           : SCF Hessian
   Vijay G. Chilkuri      : MRCI spin determinant printing
   Dipayan Datta          : RHF DLPNO-CCSD density
   Achintya Kumar Dutta   : EOM-CC, STEOM-CC
   Dmitry Ganyushin       : Spin-Orbit,Spin-Spin,Magnetic field MRCI
   Yang Guo               : DLPNO-NEVPT2, CIM, IAO-localization
   Andreas Hansen         : Spin unrestricted coupled pair/coupled cluster methods
   Lee Huntington         : MR-EOM, pCC
   Robert Izsak           : Overlap fitted RIJCOSX, COSX-SCS-MP3, EOM
   Christian Kollmar      : KDIIS, OOCD, Brueckner-CCSD(T), CCSD density
   Simone Kossmann        : Meta GGA functionals, TD-DFT gradient, OOMP2, MP2 Hessian
   Martin Krupicka        : AUTO-CI
   Dagmar Lenk            : GEPOL surface
   Dimitrios Liakos       : Extrapolation schemes; parallel MDCI
   Dimitrios Manganas     : ROCIS; embedding schemes
   Dimitrios Pantazis     : SARC Basis sets
   Taras Petrenko         : DFT Hessian,TD-DFT gradient, ASA, ECA, R-Raman, ABS, FL, XAS/XES, NRVS
   Peter Pinski           : DLPNO-MP2
   Christoph Reimann      : Effective Core Potentials
   Marius Retegan         : Local ZFS, SOC
   Christoph Riplinger    : Optimizer, TS searches, QM/MM, DLPNO-CCSD(T), (RO)-DLPNO pert. Triples
   Tobias Risthaus        : Range-separated hybrids, TD-DFT gradient, RPA, STAB
   Michael Roemelt        : Restricted open shell CIS
   Masaaki Saitow         : Open-shell DLPNO
   Barbara Sandhoefer     : DKH picture change effects
   Kantharuban Sivalingam : CASSCF convergence, NEVPT2, FIC-MRCI
   Georgi Stoychev        : AutoAux
   Boris Wezisla          : Elementary symmetry handling
   Frank Wennmohs         : Technical directorship


 We gratefully acknowledge several colleagues who have allowed us to
 interface, adapt or use parts of their codes:
   Stefan Grimme, W. Hujo, H. Kruse,             : VdW corrections, initial TS optimization,
                  C. Bannwarth                     DFT functionals, gCP, sTDA/sTD-DF
   Ed Valeev                                     : LibInt (2-el integral package), F12 methods
   Garnet Chan, S. Sharma, J. Yang, R. Olivares  : DMRG
   Ulf Ekstrom                                   : XCFun DFT Library
   Mihaly Kallay                                 : mrcc  (arbitrary order and MRCC methods)
   Jiri Pittner, Ondrej Demel                    : Mk-CCSD
   Frank Weinhold                                : gennbo (NPA and NBO analysis)
   Christopher J. Cramer and Donald G. Truhlar   : smd solvation model


 Your calculation uses the libint2 library for the computation of 2-el integrals
 For citations please refer to: http://libint.valeyev.net

 This ORCA versions uses:
   CBLAS   interface :  Fast vector & matrix operations
   LAPACKE interface :  Fast linear algebra routines
   SCALAPACK package :  Parallel linear algebra routines


Your calculation utilizes the atom-pairwise dispersion correction
with the zero-damping scheme (D30)
Cite in your paper:
S.Grimme, J.Antony, S.Ehrlich and H.Krieg, J.Chem.Phys., 132, (2010), 154104 
   

XCFun DFT library Copyright 2009-2010 Ulf Ekstrom and contributors.
See http://admol.org/xcfun for more information. This is free soft-
ware; see the source code for copying conditions. There is ABSOLUTELY
NO WARRANTY; not even for MERCHANTABILITY or FITNESS FOR A PARTICULAR
PURPOSE. For details see the documentation. Scientific users of this 
library should cite U. Ekstrom, L. Visscher, R. Bast, A. J. Thorvald-
sen and K. Ruud; J.Chem.Theor.Comp. 2010, DOI: 10.1021/ct100117s
XCFun Version 0.99 
Your calculation utilizes the basis: 6-31G(d)
   H-He, Li-Ne : W. J. Hehre, R. Ditchfield and J.A. Pople, J. Chem. Phys. 56, 2257 (1972).
                 Note: He and Ne are unpublished basis sets taken from the Gaussian program.
                 Note: Li and B from J. D. Dill and J. A. Pople, J. Chem. Phys. 62, 2921 (1975).
   Na - Ar     : M. M. Francl, W. J. Pietro, W. J. Hehre, J. S. Binkley, M. S. Gordon, 
                 D. J. DeFrees and J. A. Pople, J. Chem. Phys. 77, 3654 (1982).
   K - Zn      : V. A. Rassolov, J. A. Pople, M. A. Ratner, and T. L. Windus, J. Chem. Phys. 109, 1223 (1998).

================================================================================
                                        WARNINGS
                       Please study these warnings very carefully!
================================================================================

Warning: TCutStore was < 0. Adjusted to Thresh (uncritical)

INFO   : the flag for use of LIBINT has been found!

================================================================================
                                       INPUT FILE
================================================================================
NAME = initial7.inp
|  1> ! WB97X-D3 6-31G(d) VerySlowConv
|  2> ! KDIIS NOSOSCF
|  3> %base "Scan_7"
|  4> 
|  5> %scf
|  6> maxiter 999
|  7> end
|  8> 
|  9> * xyz 0 1
| 10> C         -3.926563701952    2.347567699623    0.039794162967
| 11> O         -2.681496152958    2.239396067244   -0.086073343976
| 12> H         -4.339065876767    3.364142465484   -0.154661700772
| 13> H         -4.332610919813    2.054161059991    1.034999459947
| 14> H         -4.417996428480    1.685063458355   -0.687048141694
| 15> H         -2.189376920029    2.801299249303    0.529989563528
| 16> **                         ****END OF INPUT****
================================================================================

                       ****************************
                       * Single Point Calculation *
                       ****************************

---------------------------------
CARTESIAN COORDINATES (ANGSTROEM)
---------------------------------
  C     -3.926564    2.347568    0.039794
  O     -2.681496    2.239396   -0.086073
  H     -4.339066    3.364142   -0.154662
  H     -4.332611    2.054161    1.034999
  H     -4.417996    1.685063   -0.687048
  H     -2.189377    2.801299    0.529990

----------------------------
CARTESIAN COORDINATES (A.U.)
----------------------------
  NO LB      ZA    FRAG     MASS         X           Y           Z
   0 C     6.0000    0    12.011   -7.420130    4.436260    0.075200
   1 O     8.0000    0    15.999   -5.067293    4.231845   -0.162655
   2 H     1.0000    0     1.008   -8.199646    6.357308   -0.292268
   3 H     1.0000    0     1.008   -8.187448    3.881802    1.955866
   4 H     1.0000    0     1.008   -8.348803    3.184308   -1.298333
   5 H     1.0000    0     1.008   -4.137323    5.293688    1.001535

--------------------------------
INTERNAL COORDINATES (ANGSTROEM)
--------------------------------
 C      0   0   0     0.000000000000     0.00000000     0.00000000
 O      1   0   0     1.256079986670     0.00000000     0.00000000
 H      1   2   0     1.114179241305   115.34508238     0.00000000
 H      1   2   3     1.114179241617   115.34508237   237.02993084
 H      1   2   3     1.099416995614   108.96146640   118.51496543
 H      2   1   3     0.968220032549   112.95932400    61.48503464

---------------------------
INTERNAL COORDINATES (A.U.)
---------------------------
 C      0   0   0     0.000000000000     0.00000000     0.00000000
 O      1   0   0     2.373647177106     0.00000000     0.00000000
 H      1   2   0     2.105493630167   115.34508238     0.00000000
 H      1   2   3     2.105493630756   115.34508237   237.02993084
 H      1   2   3     2.077597028690   108.96146640   118.51496543
 H      2   1   3     1.829670698894   112.95932400    61.48503464

---------------------
BASIS SET INFORMATION
---------------------
There are 3 groups of distinct atoms

 Group   1 Type C   : 10s4p1d contracted to 3s2p1d pattern {631/31/1}
 Group   2 Type O   : 10s4p1d contracted to 3s2p1d pattern {631/31/1}
 Group   3 Type H   : 4s contracted to 2s pattern {31}

Atom   0C    basis set group =>   1
Atom   1O    basis set group =>   2
Atom   2H    basis set group =>   3
Atom   3H    basis set group =>   3
Atom   4H    basis set group =>   3
Atom   5H    basis set group =>   3
------------------------------------------------------------------------------
                           ORCA GTO INTEGRAL CALCULATION
------------------------------------------------------------------------------

                         BASIS SET STATISTICS AND STARTUP INFO

 # of primitive gaussian shells          ...   46
 # of primitive gaussian functions       ...   70
 # of contracted shells                  ...   20
 # of contracted basis functions         ...   36
 Highest angular momentum                ...    2
 Maximum contraction depth               ...    6
 Integral package used                   ... LIBINT
 Integral threshhold            Thresh   ...  1.000e-10
 Primitive cut-off              TCut     ...  1.000e-11


------------------------------ INTEGRAL EVALUATION ----------------------------


 * One electron integrals 
 Pre-screening matrix                    ... done
 Shell pair data                         ... done (   0.000 sec)

-------------------------------------------------------------------------------
                                 ORCA SCF
-------------------------------------------------------------------------------

------------
SCF SETTINGS
------------
Hamiltonian:
 Density Functional     Method          .... DFT(GTOs)
 Exchange Functional    Exchange        .... WB97X-D3
 Correlation Functional Correlation     .... WB97X-D3
 Gradients option       PostSCFGGA      .... off
 Hybrid DFT is turned on
   Fraction HF Exchange ScalHFX         ....  0.195728
   Scaling of DF-GGA-X  ScalDFX         ....  0.000000
   Scaling of DF-GGA-C  ScalDFC         ....  1.000000
   Scaling of DF-LDA-C  ScalLDAC        ....  1.000000
   Perturbative correction              ....  0.000000
 Long-range corrected/Screened/Range-Separated Hybrid DFT is turned on
   Amount of maximum screened exact exchange              ....  0.804272
   Range separation parameter mu (erf(mu*r12)/r12)        ....  0.250000


General Settings:
 Integral files         IntName         .... Scan_7
 Hartree-Fock type      HFTyp           .... RHF
 Total Charge           Charge          ....    0
 Multiplicity           Mult            ....    1
 Number of Electrons    NEL             ....   18
 Basis Dimension        Dim             ....   36
 Nuclear Repulsion      ENuc            ....     42.8628564736 Eh

Convergence Acceleration:
 DIIS                   CNVDIIS         .... on
   Start iteration      DIISMaxIt       ....     0
   Startup error        DIISStart       ....  0.200000
   # of expansion vecs  DIISMaxEq       ....     5
   Bias factor          DIISBfac        ....   1.050
   Max. coefficient     DIISMaxC        ....  10.000
 Newton-Raphson         CNVNR           .... off
 SOSCF                  CNVSOSCF        .... off
 Level Shifting         CNVShift        .... off
 Zerner damping         CNVZerner       .... off
 Static damping         CNVDamp         .... off
 Fernandez-Rico         CNVRico         .... off

SCF Procedure:
 Maximum # iterations   MaxIter         ....   999
 SCF integral mode      SCFMode         .... Direct
   Integral package                     .... LIBINT
 Reset frequeny         DirectResetFreq ....    20
 Integral Threshold     Thresh          ....  1.000e-10 Eh
 Primitive CutOff       TCut            ....  1.000e-11 Eh

Convergence Tolerance:
 Convergence Check Mode ConvCheckMode   .... All-Criteria
 Convergence forced     ConvForced      .... 0
 Energy Change          TolE            ....  1.000e-06 Eh
 Max Density Change     TolMaxP         ....  1.000e-05
 RMS Density Change     TolRMSP         ....  1.000e-06
 DIIS Error             TolErr          ....  1.000e-06


Diagonalization of the overlap matrix:
Smallest eigenvalue                        ... 1.217e-02
Time for diagonalization                   ...    0.001 sec
Threshold for overlap eigenvalues          ... 1.000e-08
Number of eigenvalues below threshold      ... 0
Time for construction of square roots      ...    0.032 sec
Total time needed                          ...    0.033 sec

-------------------
DFT GRID GENERATION
-------------------

General Integration Accuracy     IntAcc      ...  4.340
Radial Grid Type                 RadialGrid  ... Gauss-Chebyshev
Angular Grid (max. acc.)         AngularGrid ... Lebedev-110
Angular grid pruning method      GridPruning ... 3 (G Style)
Weight generation scheme         WeightScheme... Becke
Basis function cutoff            BFCut       ...    1.0000e-10
Integration weight cutoff        WCut        ...    1.0000e-14
Grids for H and He will be reduced by one unit

# of grid points (after initial pruning)     ...   6548 (   0.0 sec)
# of grid points (after weights+screening)   ...   6345 (   0.0 sec)
nearest neighbour list constructed           ...    0.0 sec
Grid point re-assignment to atoms done       ...    0.0 sec
Grid point division into batches done        ...    0.0 sec
Reduced shell lists constructed in    0.1 sec

Total number of grid points                  ...     6345
Total number of batches                      ...      102
Average number of points per batch           ...       62
Average number of grid points per atom       ...     1058
Average number of shells per batch           ...    17.77 (88.83%)
Average number of basis functions per batch  ...    32.33 (89.81%)
Average number of large shells per batch     ...    16.20 (91.20%)
Average number of large basis fcns per batch ...    29.99 (92.76%)
Maximum spatial batch extension              ...  19.49, 25.60, 21.59 au
Average spatial batch extension              ...   4.60,  4.64,  4.44 au

Time for grid setup =    0.094 sec

------------------------------
INITIAL GUESS: MODEL POTENTIAL
------------------------------
Loading Hartree-Fock densities                     ... done
Calculating cut-offs                               ... done
Setting up the integral package                    ... done
Initializing the effective Hamiltonian             ... done
Starting the Coulomb interaction                   ... done (   0.1 sec)
Reading the grid                                   ... done
Mapping shells                                     ... done
Starting the XC term evaluation                    ... done (   0.1 sec)
  promolecular density results
     # of electrons  =     17.992097635
     EX              =    -14.478819244
     EC              =     -0.581895124
     EX+EC           =    -15.060714368
Transforming the Hamiltonian                       ... done (   0.0 sec)
Diagonalizing the Hamiltonian                      ... done (   0.0 sec)
Back transforming the eigenvectors                 ... done (   0.0 sec)
Now organizing SCF variables                       ... done
                      ------------------
                      INITIAL GUESS DONE (   0.6 sec)
                      ------------------
--------------
SCF ITERATIONS
--------------
ITER       Energy         Delta-E        Max-DP      RMS-DP      [F,P]   Gradient Norm
               ***  Starting incremental Fock matrix formation  ***
                             ****Resetting KDIIS****
                             ****Turning on KDIIS(Cayley)****
  0   -115.5636133815   0.000000000000 0.02957824  0.00224439  0.1121294   0.109911085
  1   -115.5962875045  -0.032674123023 0.02187404  0.00185572  0.0898555   0.088190942
  2   -115.6169907139  -0.020703209317 0.03659076  0.00311994  0.0730186   0.071754501
  3   -115.6418790226  -0.024888308717 0.05304295  0.00483908  0.0440321   0.044236623
  4   -115.6573662740  -0.015487251429 0.00379626  0.00036662  0.0041249   0.003005095
  5   -115.6574595522  -0.000093278234 0.00729386  0.00061633  0.0022552   0.001567918
  6   -115.6574918236  -0.000032271329 0.00149523  0.00015479  0.0006821   0.000606551
  7   -115.6574966065  -0.000004782945 0.00036383  0.00002873  0.0001249   0.000081257
                          ***Energy convergence achieved***
  8   -115.6574967094  -0.000000102914 0.00001201  0.00000158  0.0000036   0.000004430
                           ***RMSP convergence achieved***
                           ***MAXP convergence achieved***
                    *** KDIIS BlockDiag ( 0.000 sec) ***

               *****************************************************
               *                     SUCCESS                       *
               *           SCF CONVERGED AFTER   9 CYCLES          *
               *****************************************************

Setting up the final grid:

General Integration Accuracy     IntAcc      ...  4.670
Radial Grid Type                 RadialGrid  ... Gauss-Chebyshev
Angular Grid (max. acc.)         AngularGrid ... Lebedev-302
Angular grid pruning method      GridPruning ... 3 (G Style)
Weight generation scheme         WeightScheme... Becke
Basis function cutoff            BFCut       ...    1.0000e-10
Integration weight cutoff        WCut        ...    1.0000e-14
Grids for H and He will be reduced by one unit

# of grid points (after initial pruning)     ...  26000 (   0.0 sec)
# of grid points (after weights+screening)   ...  25149 (   0.0 sec)
nearest neighbour list constructed           ...    0.0 sec
Grid point re-assignment to atoms done       ...    0.0 sec
Grid point division into batches done        ...    0.1 sec
Reduced shell lists constructed in    0.4 sec

Total number of grid points                  ...    25149
Total number of batches                      ...      397
Average number of points per batch           ...       63
Average number of grid points per atom       ...     4192
Average number of shells per batch           ...    16.36 (81.82%)
Average number of basis functions per batch  ...    29.96 (83.23%)
Average number of large shells per batch     ...    14.77 (90.23%)
Average number of large basis fcns per batch ...    27.37 (91.36%)
Maximum spatial batch extension              ...  18.07, 17.32, 16.05 au
Average spatial batch extension              ...   3.02,  3.04,  3.01 au

Final grid set up in    0.5 sec
Final integration                            ... done (   0.5 sec)
Change in XC energy                          ...     0.000015794
Integrated number of electrons               ...    18.000007930
Previous integrated no of electrons          ...    17.997295832

----------------
TOTAL SCF ENERGY
----------------

Total Energy       :         -115.65748092 Eh           -3147.20006 eV

Components:
Nuclear Repulsion  :           42.86285647 Eh            1166.35762 eV
Electronic Energy  :         -158.52033739 Eh           -4313.55768 eV
One Electron Energy:         -241.83564055 Eh           -6580.68233 eV
Two Electron Energy:           83.31530317 Eh            2267.12466 eV

Virial components:
Potential Energy   :         -230.97377765 Eh           -6285.11602 eV
Kinetic Energy     :          115.31629673 Eh            3137.91596 eV
Virial Ratio       :            2.00295868


DFT components:
N(Alpha)           :        9.000003964883 electrons
N(Beta)            :        9.000003964883 electrons
N(Total)           :       18.000007929767 electrons
E(XC)              :      -10.708230514085 Eh       

---------------
SCF CONVERGENCE
---------------

  Last Energy change         ...   -1.6364e-10  Tolerance :   1.0000e-06
  Last MAX-Density change    ...    3.5501e-06  Tolerance :   1.0000e-05
  Last RMS-Density change    ...    2.8693e-07  Tolerance :   1.0000e-06
  Last DIIS Error            ...    1.1558e-06  Tolerance :   1.0000e-06

             **** THE GBW FILE WAS UPDATED (Scan_7.gbw) ****
             **** DENSITY FILE WAS UPDATED (Scan_7.scfp.tmp) ****
             **** ENERGY FILE WAS UPDATED (Scan_7.en.tmp) ****
----------------
ORBITAL ENERGIES
----------------

  NO   OCC          E(Eh)            E(eV) 
   0   2.0000     -19.244779      -523.6771 
   1   2.0000     -10.307704      -280.4869 
   2   2.0000      -1.187208       -32.3056 
   3   2.0000      -0.788337       -21.4517 
   4   2.0000      -0.638029       -17.3616 
   5   2.0000      -0.552356       -15.0304 
   6   2.0000      -0.545534       -14.8447 
   7   2.0000      -0.405307       -11.0290 
   8   2.0000      -0.351511        -9.5651 
   9   0.0000       0.173851         4.7307 
  10   0.0000       0.230977         6.2852 
  11   0.0000       0.269599         7.3362 
  12   0.0000       0.278469         7.5775 
  13   0.0000       0.352710         9.5977 
  14   0.0000       0.674656        18.3583 
  15   0.0000       0.684652        18.6303 
  16   0.0000       0.737998        20.0819 
  17   0.0000       0.868640        23.6369 
  18   0.0000       0.950987        25.8777 
  19   0.0000       0.986509        26.8443 
  20   0.0000       1.039457        28.2851 
  21   0.0000       1.078612        29.3505 
  22   0.0000       1.095122        29.7998 
  23   0.0000       1.131051        30.7775 
  24   0.0000       1.232528        33.5388 
  25   0.0000       1.617018        44.0013 
  26   0.0000       1.668636        45.4059 
  27   0.0000       1.765952        48.0540 
  28   0.0000       1.809306        49.2337 
  29   0.0000       2.127725        57.8983 
  30   0.0000       2.261063        61.5267 
  31   0.0000       2.410944        65.6051 
  32   0.0000       2.537982        69.0620 
  33   0.0000       2.650139        72.1139 
  34   0.0000       2.657702        72.3198 
  35   0.0000       2.990843        81.3850 

                    ********************************
                    * MULLIKEN POPULATION ANALYSIS *
                    ********************************

-----------------------
MULLIKEN ATOMIC CHARGES
-----------------------
   0 C :   -0.236339
   1 O :   -0.562743
   2 H :    0.110940
   3 H :    0.111129
   4 H :    0.158415
   5 H :    0.418598
Sum of atomic charges:   -0.0000000

--------------------------------
MULLIKEN REDUCED ORBITAL CHARGES
--------------------------------
  0 C s       :     3.208474  s :     3.208474
      pz      :     1.087275  p :     2.943516
      px      :     0.773704
      py      :     1.082537
      dz2     :     0.012261  d :     0.084348
      dxz     :     0.023108
      dyz     :     0.005489
      dx2y2   :     0.019828
      dxy     :     0.023662
  1 O s       :     3.791033  s :     3.791033
      pz      :     1.711789  p :     4.740273
      px      :     1.283804
      py      :     1.744681
      dz2     :     0.002848  d :     0.031437
      dxz     :     0.008794
      dyz     :     0.007182
      dx2y2   :     0.004553
      dxy     :     0.008060
  2 H s       :     0.889060  s :     0.889060
  3 H s       :     0.888871  s :     0.888871
  4 H s       :     0.841585  s :     0.841585
  5 H s       :     0.581402  s :     0.581402


                     *******************************
                     * LOEWDIN POPULATION ANALYSIS *
                     *******************************

----------------------
LOEWDIN ATOMIC CHARGES
----------------------
   0 C :   -0.269525
   1 O :   -0.342390
   2 H :    0.083329
   3 H :    0.083103
   4 H :    0.120376
   5 H :    0.325107

-------------------------------
LOEWDIN REDUCED ORBITAL CHARGES
-------------------------------
  0 C s       :     2.926234  s :     2.926234
      pz      :     1.119870  p :     3.158800
      px      :     0.921167
      py      :     1.117763
      dz2     :     0.024865  d :     0.184491
      dxz     :     0.053544
      dyz     :     0.008884
      dx2y2   :     0.042383
      dxy     :     0.054816
  1 O s       :     3.458384  s :     3.458384
      pz      :     1.704816  p :     4.813178
      px      :     1.373009
      py      :     1.735353
      dz2     :     0.006229  d :     0.070827
      dxz     :     0.021716
      dyz     :     0.008525
      dx2y2   :     0.014100
      dxy     :     0.020257
  2 H s       :     0.916671  s :     0.916671
  3 H s       :     0.916897  s :     0.916897
  4 H s       :     0.879624  s :     0.879624
  5 H s       :     0.674893  s :     0.674893


                      *****************************
                      * MAYER POPULATION ANALYSIS *
                      *****************************

  NA   - Mulliken gross atomic population
  ZA   - Total nuclear charge
  QA   - Mulliken gross atomic charge
  VA   - Mayer's total valence
  BVA  - Mayer's bonded valence
  FA   - Mayer's free valence

  ATOM       NA         ZA         QA         VA         BVA        FA
  0 C      6.2363     6.0000    -0.2363     3.8489     3.8489    -0.0000
  1 O      8.5627     8.0000    -0.5627     1.8424     1.8424    -0.0000
  2 H      0.8891     1.0000     0.1109     0.9306     0.9306     0.0000
  3 H      0.8889     1.0000     0.1111     0.9304     0.9304     0.0000
  4 H      0.8416     1.0000     0.1584     0.9312     0.9312     0.0000
  5 H      0.5814     1.0000     0.4186     0.7883     0.7883    -0.0000

  Mayer bond orders larger than 0.1
B(  0-C ,  1-O ) :   1.0320 B(  0-C ,  2-H ) :   0.9379 B(  0-C ,  3-H ) :   0.9377 
B(  0-C ,  4-H ) :   0.9448 B(  1-O ,  5-H ) :   0.7787 

-------
TIMINGS
-------

Total SCF time: 0 days 0 hours 0 min 13 sec 

Total time                  ....      13.052 sec
Sum of individual times     ....      12.455 sec  ( 95.4%)

Fock matrix formation       ....      11.226 sec  ( 86.0%)
  XC integration            ....       2.707 sec  ( 24.1% of F)
    Basis function eval.    ....       0.755 sec  ( 27.9% of XC)
    Density eval.           ....       0.120 sec  (  4.4% of XC)
    XC-Functional eval.     ....       0.690 sec  ( 25.5% of XC)
    XC-Potential eval.      ....       0.143 sec  (  5.3% of XC)
Diagonalization             ....       0.113 sec  (  0.9%)
Density matrix formation    ....       0.000 sec  (  0.0%)
Population analysis         ....       0.023 sec  (  0.2%)
Initial guess               ....       0.485 sec  (  3.7%)
Orbital Transformation      ....       0.000 sec  (  0.0%)
Orbital Orthonormalization  ....       0.000 sec  (  0.0%)
DIIS solution               ....       0.000 sec  (  0.0%)
Grid generation             ....       0.607 sec  (  4.7%)


-------------------------------------------------------------------------------
                          DFT DISPERSION CORRECTION                            
                                                                               
                              DFTD3 V3.1  Rev 1                                
                              USING zero damping                               
-------------------------------------------------------------------------------
The omegaB97X-D3 functional is recognized. Fit by Chai et al.
Active option DFTDOPT                   ...         3   

molecular C6(AA) [au] = 208.661070 


            DFT-D V3
 parameters
 s6 scaling factor         :     1.0000 
 rs6 scaling factor        :     1.2810 
 s8 scaling factor         :     1.0000 
 rs8 scaling factor        :     1.0940 
 Damping factor alpha6     :    14.0000 
 Damping factor alpha8     :    16.0000 
 ad hoc parameters k1-k3   :    16.0000     1.3333    -4.0000 

 Edisp/kcal,au: -0.129040329961  -0.000205638833 
 E6   /kcal   :  -0.025417994 
 E8   /kcal   :  -0.103622336 
 % E8         :  80.302287246 

-------------------------   ----------------
Dispersion correction           -0.000205639
-------------------------   ----------------


-------------------------   --------------------
FINAL SINGLE POINT ENERGY      -115.657686554438
-------------------------   --------------------


                            ***************************************
                            *     ORCA property calculations      *
                            ***************************************

                                    ---------------------
                                    Active property flags
                                    ---------------------
   (+) Dipole Moment


------------------------------------------------------------------------------
                       ORCA ELECTRIC PROPERTIES CALCULATION
------------------------------------------------------------------------------

Dipole Moment Calculation                       ... on
Quadrupole Moment Calculation                   ... off
Polarizability Calculation                      ... off
GBWName                                         ... Scan_7.gbw
Electron density file                           ... Scan_7.scfp.tmp

-------------
DIPOLE MOMENT
-------------
                                X             Y             Z
Electronic contribution:      1.97696      -0.23730      -0.27319
Nuclear contribution   :     -1.97360       0.62352       0.69729
                        -----------------------------------------
Total Dipole Moment    :      0.00336       0.38621       0.42409
                        -----------------------------------------
Magnitude (a.u.)       :      0.57361
Magnitude (Debye)      :      1.45799


Timings for individual modules:

Sum of individual times         ...       14.746 sec (=   0.246 min)
GTO integral calculation        ...        1.432 sec (=   0.024 min)   9.7 %
SCF iterations                  ...       13.314 sec (=   0.222 min)  90.3 %
                             ****ORCA TERMINATED NORMALLY****
TOTAL RUN TIME: 0 days 0 hours 0 minutes 16 seconds 53 msec
