
                                 *****************
                                 * O   R   C   A *
                                 *****************

           --- An Ab Initio, DFT and Semiempirical electronic structure package ---

                  #######################################################
                  #                        -***-                        #
                  #  Department of molecular theory and spectroscopy    #
                  #              Directorship: Frank Neese              #
                  # Max Planck Institute for Chemical Energy Conversion #
                  #                  D-45470 Muelheim/Ruhr              #
                  #                       Germany                       #
                  #                                                     #
                  #                  All rights reserved                #
                  #                        -***-                        #
                  #######################################################


                         Program Version 4.0.0.2 - RELEASE -


 With contributions from (in alphabetic order):
   Daniel Aravena         : Magnetic Properties
   Michael Atanasov       : Ab Initio Ligand Field Theory
   Ute Becker             : Parallelization
   Martin Brehm           : Molecular dynamics
   Dmytro Bykov           : SCF Hessian
   Vijay G. Chilkuri      : MRCI spin determinant printing
   Dipayan Datta          : RHF DLPNO-CCSD density
   Achintya Kumar Dutta   : EOM-CC, STEOM-CC
   Dmitry Ganyushin       : Spin-Orbit,Spin-Spin,Magnetic field MRCI
   Yang Guo               : DLPNO-NEVPT2, CIM, IAO-localization
   Andreas Hansen         : Spin unrestricted coupled pair/coupled cluster methods
   Lee Huntington         : MR-EOM, pCC
   Robert Izsak           : Overlap fitted RIJCOSX, COSX-SCS-MP3, EOM
   Christian Kollmar      : KDIIS, OOCD, Brueckner-CCSD(T), CCSD density
   Simone Kossmann        : Meta GGA functionals, TD-DFT gradient, OOMP2, MP2 Hessian
   Martin Krupicka        : AUTO-CI
   Dagmar Lenk            : GEPOL surface
   Dimitrios Liakos       : Extrapolation schemes; parallel MDCI
   Dimitrios Manganas     : ROCIS; embedding schemes
   Dimitrios Pantazis     : SARC Basis sets
   Taras Petrenko         : DFT Hessian,TD-DFT gradient, ASA, ECA, R-Raman, ABS, FL, XAS/XES, NRVS
   Peter Pinski           : DLPNO-MP2
   Christoph Reimann      : Effective Core Potentials
   Marius Retegan         : Local ZFS, SOC
   Christoph Riplinger    : Optimizer, TS searches, QM/MM, DLPNO-CCSD(T), (RO)-DLPNO pert. Triples
   Tobias Risthaus        : Range-separated hybrids, TD-DFT gradient, RPA, STAB
   Michael Roemelt        : Restricted open shell CIS
   Masaaki Saitow         : Open-shell DLPNO
   Barbara Sandhoefer     : DKH picture change effects
   Kantharuban Sivalingam : CASSCF convergence, NEVPT2, FIC-MRCI
   Georgi Stoychev        : AutoAux
   Boris Wezisla          : Elementary symmetry handling
   Frank Wennmohs         : Technical directorship


 We gratefully acknowledge several colleagues who have allowed us to
 interface, adapt or use parts of their codes:
   Stefan Grimme, W. Hujo, H. Kruse,             : VdW corrections, initial TS optimization,
                  C. Bannwarth                     DFT functionals, gCP, sTDA/sTD-DF
   Ed Valeev                                     : LibInt (2-el integral package), F12 methods
   Garnet Chan, S. Sharma, J. Yang, R. Olivares  : DMRG
   Ulf Ekstrom                                   : XCFun DFT Library
   Mihaly Kallay                                 : mrcc  (arbitrary order and MRCC methods)
   Jiri Pittner, Ondrej Demel                    : Mk-CCSD
   Frank Weinhold                                : gennbo (NPA and NBO analysis)
   Christopher J. Cramer and Donald G. Truhlar   : smd solvation model


 Your calculation uses the libint2 library for the computation of 2-el integrals
 For citations please refer to: http://libint.valeyev.net

 This ORCA versions uses:
   CBLAS   interface :  Fast vector & matrix operations
   LAPACKE interface :  Fast linear algebra routines
   SCALAPACK package :  Parallel linear algebra routines


Your calculation utilizes the atom-pairwise dispersion correction
with the zero-damping scheme (D30)
Cite in your paper:
S.Grimme, J.Antony, S.Ehrlich and H.Krieg, J.Chem.Phys., 132, (2010), 154104 
   

XCFun DFT library Copyright 2009-2010 Ulf Ekstrom and contributors.
See http://admol.org/xcfun for more information. This is free soft-
ware; see the source code for copying conditions. There is ABSOLUTELY
NO WARRANTY; not even for MERCHANTABILITY or FITNESS FOR A PARTICULAR
PURPOSE. For details see the documentation. Scientific users of this 
library should cite U. Ekstrom, L. Visscher, R. Bast, A. J. Thorvald-
sen and K. Ruud; J.Chem.Theor.Comp. 2010, DOI: 10.1021/ct100117s
XCFun Version 0.99 
Your calculation utilizes the basis: 6-31G(d)
   H-He, Li-Ne : W. J. Hehre, R. Ditchfield and J.A. Pople, J. Chem. Phys. 56, 2257 (1972).
                 Note: He and Ne are unpublished basis sets taken from the Gaussian program.
                 Note: Li and B from J. D. Dill and J. A. Pople, J. Chem. Phys. 62, 2921 (1975).
   Na - Ar     : M. M. Francl, W. J. Pietro, W. J. Hehre, J. S. Binkley, M. S. Gordon, 
                 D. J. DeFrees and J. A. Pople, J. Chem. Phys. 77, 3654 (1982).
   K - Zn      : V. A. Rassolov, J. A. Pople, M. A. Ratner, and T. L. Windus, J. Chem. Phys. 109, 1223 (1998).

================================================================================
                                        WARNINGS
                       Please study these warnings very carefully!
================================================================================

Warning: TCutStore was < 0. Adjusted to Thresh (uncritical)

INFO   : the flag for use of LIBINT has been found!

================================================================================
                                       INPUT FILE
================================================================================
NAME = initial9.inp
|  1> ! WB97X-D3 6-31G(d) VerySlowConv
|  2> ! KDIIS NOSOSCF
|  3> %base "Scan_9"
|  4> 
|  5> %scf
|  6> maxiter 999
|  7> end
|  8> 
|  9> * xyz 0 1
| 10> C         -3.973875740309    2.348702507634    0.041300452591
| 11> O         -2.630413668296    2.233848630374   -0.092459006560
| 12> H         -4.338819330347    3.367815848549   -0.156886230144
| 13> H         -4.332333630228    2.051595410854    1.038440915216
| 14> H         -4.430932228839    1.681130202799   -0.691309011588
| 15> H         -2.180735401982    2.808537399789    0.537912880485
| 16> **                         ****END OF INPUT****
================================================================================

                       ****************************
                       * Single Point Calculation *
                       ****************************

---------------------------------
CARTESIAN COORDINATES (ANGSTROEM)
---------------------------------
  C     -3.973876    2.348703    0.041300
  O     -2.630414    2.233849   -0.092459
  H     -4.338819    3.367816   -0.156886
  H     -4.332334    2.051595    1.038441
  H     -4.430932    1.681130   -0.691309
  H     -2.180735    2.808537    0.537913

----------------------------
CARTESIAN COORDINATES (A.U.)
----------------------------
  NO LB      ZA    FRAG     MASS         X           Y           Z
   0 C     6.0000    0    12.011   -7.509537    4.438405    0.078047
   1 O     8.0000    0    15.999   -4.970761    4.221362   -0.174722
   2 H     1.0000    0     1.008   -8.199180    6.364250   -0.296472
   3 H     1.0000    0     1.008   -8.186924    3.876953    1.962369
   4 H     1.0000    0     1.008   -8.373248    3.176876   -1.306385
   5 H     1.0000    0     1.008   -4.120993    5.307367    1.016508

--------------------------------
INTERNAL COORDINATES (ANGSTROEM)
--------------------------------
 C      0   0   0     0.000000000000     0.00000000     0.00000000
 O      1   0   0     1.354980938970     0.00000000     0.00000000
 H      1   2   0     1.100478889736   112.92478170     0.00000000
 H      1   2   3     1.100478890305   112.92478168   237.40939131
 H      1   2   3     1.091453179433   107.28312693   118.70469568
 H      2   1   3     0.964285456109   110.32338684    61.29530444

---------------------------
INTERNAL COORDINATES (A.U.)
---------------------------
 C      0   0   0     0.000000000000     0.00000000     0.00000000
 O      1   0   0     2.560542891336     0.00000000     0.00000000
 H      1   2   0     2.079603717762   112.92478170     0.00000000
 H      1   2   3     2.079603718837   112.92478168   237.40939131
 H      1   2   3     2.062547597126   107.28312693   118.70469568
 H      2   1   3     1.822235426970   110.32338684    61.29530444

---------------------
BASIS SET INFORMATION
---------------------
There are 3 groups of distinct atoms

 Group   1 Type C   : 10s4p1d contracted to 3s2p1d pattern {631/31/1}
 Group   2 Type O   : 10s4p1d contracted to 3s2p1d pattern {631/31/1}
 Group   3 Type H   : 4s contracted to 2s pattern {31}

Atom   0C    basis set group =>   1
Atom   1O    basis set group =>   2
Atom   2H    basis set group =>   3
Atom   3H    basis set group =>   3
Atom   4H    basis set group =>   3
Atom   5H    basis set group =>   3
------------------------------------------------------------------------------
                           ORCA GTO INTEGRAL CALCULATION
------------------------------------------------------------------------------

                         BASIS SET STATISTICS AND STARTUP INFO

 # of primitive gaussian shells          ...   46
 # of primitive gaussian functions       ...   70
 # of contracted shells                  ...   20
 # of contracted basis functions         ...   36
 Highest angular momentum                ...    2
 Maximum contraction depth               ...    6
 Integral package used                   ... LIBINT
 Integral threshhold            Thresh   ...  1.000e-10
 Primitive cut-off              TCut     ...  1.000e-11


------------------------------ INTEGRAL EVALUATION ----------------------------


 * One electron integrals 
 Pre-screening matrix                    ... done
 Shell pair data                         ... done (   0.000 sec)

-------------------------------------------------------------------------------
                                 ORCA SCF
-------------------------------------------------------------------------------

------------
SCF SETTINGS
------------
Hamiltonian:
 Density Functional     Method          .... DFT(GTOs)
 Exchange Functional    Exchange        .... WB97X-D3
 Correlation Functional Correlation     .... WB97X-D3
 Gradients option       PostSCFGGA      .... off
 Hybrid DFT is turned on
   Fraction HF Exchange ScalHFX         ....  0.195728
   Scaling of DF-GGA-X  ScalDFX         ....  0.000000
   Scaling of DF-GGA-C  ScalDFC         ....  1.000000
   Scaling of DF-LDA-C  ScalLDAC        ....  1.000000
   Perturbative correction              ....  0.000000
 Long-range corrected/Screened/Range-Separated Hybrid DFT is turned on
   Amount of maximum screened exact exchange              ....  0.804272
   Range separation parameter mu (erf(mu*r12)/r12)        ....  0.250000


General Settings:
 Integral files         IntName         .... Scan_9
 Hartree-Fock type      HFTyp           .... RHF
 Total Charge           Charge          ....    0
 Multiplicity           Mult            ....    1
 Number of Electrons    NEL             ....   18
 Basis Dimension        Dim             ....   36
 Nuclear Repulsion      ENuc            ....     41.2784880800 Eh

Convergence Acceleration:
 DIIS                   CNVDIIS         .... on
   Start iteration      DIISMaxIt       ....     0
   Startup error        DIISStart       ....  0.200000
   # of expansion vecs  DIISMaxEq       ....     5
   Bias factor          DIISBfac        ....   1.050
   Max. coefficient     DIISMaxC        ....  10.000
 Newton-Raphson         CNVNR           .... off
 SOSCF                  CNVSOSCF        .... off
 Level Shifting         CNVShift        .... off
 Zerner damping         CNVZerner       .... off
 Static damping         CNVDamp         .... off
 Fernandez-Rico         CNVRico         .... off

SCF Procedure:
 Maximum # iterations   MaxIter         ....   999
 SCF integral mode      SCFMode         .... Direct
   Integral package                     .... LIBINT
 Reset frequeny         DirectResetFreq ....    20
 Integral Threshold     Thresh          ....  1.000e-10 Eh
 Primitive CutOff       TCut            ....  1.000e-11 Eh

Convergence Tolerance:
 Convergence Check Mode ConvCheckMode   .... All-Criteria
 Convergence forced     ConvForced      .... 0
 Energy Change          TolE            ....  1.000e-06 Eh
 Max Density Change     TolMaxP         ....  1.000e-05
 RMS Density Change     TolRMSP         ....  1.000e-06
 DIIS Error             TolErr          ....  1.000e-06


Diagonalization of the overlap matrix:
Smallest eigenvalue                        ... 1.361e-02
Time for diagonalization                   ...    0.001 sec
Threshold for overlap eigenvalues          ... 1.000e-08
Number of eigenvalues below threshold      ... 0
Time for construction of square roots      ...    0.006 sec
Total time needed                          ...    0.006 sec

-------------------
DFT GRID GENERATION
-------------------

General Integration Accuracy     IntAcc      ...  4.340
Radial Grid Type                 RadialGrid  ... Gauss-Chebyshev
Angular Grid (max. acc.)         AngularGrid ... Lebedev-110
Angular grid pruning method      GridPruning ... 3 (G Style)
Weight generation scheme         WeightScheme... Becke
Basis function cutoff            BFCut       ...    1.0000e-10
Integration weight cutoff        WCut        ...    1.0000e-14
Grids for H and He will be reduced by one unit

# of grid points (after initial pruning)     ...   6548 (   0.0 sec)
# of grid points (after weights+screening)   ...   6356 (   0.0 sec)
nearest neighbour list constructed           ...    0.0 sec
Grid point re-assignment to atoms done       ...    0.0 sec
Grid point division into batches done        ...    0.0 sec
Reduced shell lists constructed in    0.0 sec

Total number of grid points                  ...     6356
Total number of batches                      ...      102
Average number of points per batch           ...       62
Average number of grid points per atom       ...     1059
Average number of shells per batch           ...    17.74 (88.69%)
Average number of basis functions per batch  ...    32.36 (89.89%)
Average number of large shells per batch     ...    16.15 (91.02%)
Average number of large basis fcns per batch ...    29.83 (92.20%)
Maximum spatial batch extension              ...  19.49, 25.60, 21.59 au
Average spatial batch extension              ...   4.71,  4.61,  4.46 au

Time for grid setup =    0.049 sec

------------------------------
INITIAL GUESS: MODEL POTENTIAL
------------------------------
Loading Hartree-Fock densities                     ... done
Calculating cut-offs                               ... done
Setting up the integral package                    ... done
Initializing the effective Hamiltonian             ... done
Starting the Coulomb interaction                   ... done (   0.0 sec)
Reading the grid                                   ... done
Mapping shells                                     ... done
Starting the XC term evaluation                    ... done (   0.0 sec)
  promolecular density results
     # of electrons  =     17.991799726
     EX              =    -14.445654792
     EC              =     -0.577631286
     EX+EC           =    -15.023286078
Transforming the Hamiltonian                       ... done (   0.0 sec)
Diagonalizing the Hamiltonian                      ... done (   0.0 sec)
Back transforming the eigenvectors                 ... done (   0.0 sec)
Now organizing SCF variables                       ... done
                      ------------------
                      INITIAL GUESS DONE (   0.2 sec)
                      ------------------
--------------
SCF ITERATIONS
--------------
ITER       Energy         Delta-E        Max-DP      RMS-DP      [F,P]   Gradient Norm
               ***  Starting incremental Fock matrix formation  ***
                             ****Resetting KDIIS****
                             ****Turning on KDIIS(Cayley)****
  0   -115.5906474594   0.000000000000 0.02825837  0.00209925  0.1097062   0.104796286
  1   -115.6198258502  -0.029178390874 0.02046610  0.00175095  0.0878666   0.084249107
  2   -115.6386715483  -0.018845698094 0.03525931  0.00291567  0.0718669   0.068624739
  3   -115.6612834543  -0.022611905974 0.05086481  0.00457493  0.0433266   0.042213819
  4   -115.6753679667  -0.014084512407 0.00400692  0.00038181  0.0037947   0.002639452
  5   -115.6754479264  -0.000079959707 0.00557635  0.00047651  0.0018470   0.001250596
  6   -115.6754700567  -0.000022130244 0.00073997  0.00007782  0.0003840   0.000356226
  7   -115.6754716304  -0.000001573684 0.00017141  0.00001391  0.0000438   0.000030654
                          ***Energy convergence achieved***
                           ***RMSP convergence achieved***
                           ***MAXP convergence achieved***
                    *** KDIIS BlockDiag ( 0.000 sec) ***

               *****************************************************
               *                     SUCCESS                       *
               *           SCF CONVERGED AFTER   8 CYCLES          *
               *****************************************************

Setting up the final grid:

General Integration Accuracy     IntAcc      ...  4.670
Radial Grid Type                 RadialGrid  ... Gauss-Chebyshev
Angular Grid (max. acc.)         AngularGrid ... Lebedev-302
Angular grid pruning method      GridPruning ... 3 (G Style)
Weight generation scheme         WeightScheme... Becke
Basis function cutoff            BFCut       ...    1.0000e-10
Integration weight cutoff        WCut        ...    1.0000e-14
Grids for H and He will be reduced by one unit

# of grid points (after initial pruning)     ...  26000 (   0.0 sec)
# of grid points (after weights+screening)   ...  25162 (   0.0 sec)
nearest neighbour list constructed           ...    0.0 sec
Grid point re-assignment to atoms done       ...    0.0 sec
Grid point division into batches done        ...    0.1 sec
Reduced shell lists constructed in    0.2 sec

Total number of grid points                  ...    25162
Total number of batches                      ...      397
Average number of points per batch           ...       63
Average number of grid points per atom       ...     4194
Average number of shells per batch           ...    16.35 (81.73%)
Average number of basis functions per batch  ...    29.93 (83.15%)
Average number of large shells per batch     ...    14.70 (89.93%)
Average number of large basis fcns per batch ...    27.25 (91.04%)
Maximum spatial batch extension              ...  18.36, 17.32, 16.88 au
Average spatial batch extension              ...   3.03,  3.00,  3.01 au

Final grid set up in    0.2 sec
Final integration                            ... done (   0.2 sec)
Change in XC energy                          ...     0.000055234
Integrated number of electrons               ...    17.999998832
Previous integrated no of electrons          ...    17.996779938

----------------
TOTAL SCF ENERGY
----------------

Total Energy       :         -115.67541641 Eh           -3147.68811 eV

Components:
Nuclear Repulsion  :           41.27848808 Eh            1123.24477 eV
Electronic Energy  :         -156.95390449 Eh           -4270.93287 eV
One Electron Energy:         -238.87879227 Eh           -6500.22240 eV
Two Electron Energy:           81.92488778 Eh            2229.28953 eV

Virial components:
Potential Energy   :         -230.77990215 Eh           -6279.84040 eV
Kinetic Energy     :          115.10448573 Eh            3132.15229 eV
Virial Ratio       :            2.00496011


DFT components:
N(Alpha)           :        8.999999416026 electrons
N(Beta)            :        8.999999416026 electrons
N(Total)           :       17.999998832052 electrons
E(XC)              :      -10.673367190335 Eh       

---------------
SCF CONVERGENCE
---------------

  Last Energy change         ...   -1.4740e-08  Tolerance :   1.0000e-06
  Last MAX-Density change    ...    7.0221e-06  Tolerance :   1.0000e-05
  Last RMS-Density change    ...    9.5404e-07  Tolerance :   1.0000e-06
  Last DIIS Error            ...    2.5619e-06  Tolerance :   1.0000e-06

             **** THE GBW FILE WAS UPDATED (Scan_9.gbw) ****
             **** DENSITY FILE WAS UPDATED (Scan_9.scfp.tmp) ****
             **** ENERGY FILE WAS UPDATED (Scan_9.en.tmp) ****
----------------
ORBITAL ENERGIES
----------------

  NO   OCC          E(Eh)            E(eV) 
   0   2.0000     -19.239338      -523.5290 
   1   2.0000     -10.311203      -280.5821 
   2   2.0000      -1.145735       -31.1770 
   3   2.0000      -0.789308       -21.4782 
   4   2.0000      -0.615978       -16.7616 
   5   2.0000      -0.540059       -14.6957 
   6   2.0000      -0.527134       -14.3440 
   7   2.0000      -0.417909       -11.3719 
   8   2.0000      -0.357220        -9.7205 
   9   0.0000       0.177108         4.8194 
  10   0.0000       0.232492         6.3264 
  11   0.0000       0.266027         7.2390 
  12   0.0000       0.273584         7.4446 
  13   0.0000       0.324773         8.8375 
  14   0.0000       0.664729        18.0882 
  15   0.0000       0.675895        18.3920 
  16   0.0000       0.681488        18.5442 
  17   0.0000       0.887655        24.1543 
  18   0.0000       0.961538        26.1648 
  19   0.0000       0.988956        26.9109 
  20   0.0000       1.030657        28.0456 
  21   0.0000       1.081876        29.4393 
  22   0.0000       1.104283        30.0491 
  23   0.0000       1.129338        30.7308 
  24   0.0000       1.234801        33.6006 
  25   0.0000       1.599816        43.5332 
  26   0.0000       1.637805        44.5669 
  27   0.0000       1.758865        47.8611 
  28   0.0000       1.832217        49.8572 
  29   0.0000       2.171496        59.0894 
  30   0.0000       2.255743        61.3819 
  31   0.0000       2.272683        61.8428 
  32   0.0000       2.494580        67.8810 
  33   0.0000       2.558841        69.6296 
  34   0.0000       2.583665        70.3051 
  35   0.0000       2.930068        79.7312 

                    ********************************
                    * MULLIKEN POPULATION ANALYSIS *
                    ********************************

-----------------------
MULLIKEN ATOMIC CHARGES
-----------------------
   0 C :   -0.230969
   1 O :   -0.623966
   2 H :    0.134610
   3 H :    0.134755
   4 H :    0.171917
   5 H :    0.413653
Sum of atomic charges:   -0.0000000

--------------------------------
MULLIKEN REDUCED ORBITAL CHARGES
--------------------------------
  0 C s       :     3.227952  s :     3.227952
      pz      :     1.097198  p :     2.933523
      px      :     0.743178
      py      :     1.093147
      dz2     :     0.011481  d :     0.069493
      dxz     :     0.017231
      dyz     :     0.005689
      dx2y2   :     0.017493
      dxy     :     0.017598
  1 O s       :     3.837980  s :     3.837980
      pz      :     1.715752  p :     4.757263
      px      :     1.288749
      py      :     1.752763
      dz2     :     0.003073  d :     0.028723
      dxz     :     0.006870
      dyz     :     0.007578
      dx2y2   :     0.005002
      dxy     :     0.006201
  2 H s       :     0.865390  s :     0.865390
  3 H s       :     0.865245  s :     0.865245
  4 H s       :     0.828083  s :     0.828083
  5 H s       :     0.586347  s :     0.586347


                     *******************************
                     * LOEWDIN POPULATION ANALYSIS *
                     *******************************

----------------------
LOEWDIN ATOMIC CHARGES
----------------------
   0 C :   -0.245639
   1 O :   -0.404221
   2 H :    0.101311
   3 H :    0.101021
   4 H :    0.129551
   5 H :    0.317977

-------------------------------
LOEWDIN REDUCED ORBITAL CHARGES
-------------------------------
  0 C s       :     2.952533  s :     2.952533
      pz      :     1.135703  p :     3.149453
      px      :     0.879730
      py      :     1.134020
      dz2     :     0.022740  d :     0.143653
      dxz     :     0.036941
      dyz     :     0.009549
      dx2y2   :     0.036670
      dxy     :     0.037754
  1 O s       :     3.521547  s :     3.521547
      pz      :     1.717181  p :     4.826048
      px      :     1.357182
      py      :     1.751686
      dz2     :     0.005650  d :     0.056625
      dxz     :     0.015367
      dyz     :     0.009272
      dx2y2   :     0.012185
      dxy     :     0.014151
  2 H s       :     0.898689  s :     0.898689
  3 H s       :     0.898979  s :     0.898979
  4 H s       :     0.870449  s :     0.870449
  5 H s       :     0.682023  s :     0.682023


                      *****************************
                      * MAYER POPULATION ANALYSIS *
                      *****************************

  NA   - Mulliken gross atomic population
  ZA   - Total nuclear charge
  QA   - Mulliken gross atomic charge
  VA   - Mayer's total valence
  BVA  - Mayer's bonded valence
  FA   - Mayer's free valence

  ATOM       NA         ZA         QA         VA         BVA        FA
  0 C      6.2310     6.0000    -0.2310     3.8098     3.8098    -0.0000
  1 O      8.6240     8.0000    -0.6240     1.7794     1.7794     0.0000
  2 H      0.8654     1.0000     0.1346     0.9285     0.9285     0.0000
  3 H      0.8652     1.0000     0.1348     0.9283     0.9283    -0.0000
  4 H      0.8281     1.0000     0.1719     0.9305     0.9305     0.0000
  5 H      0.5863     1.0000     0.4137     0.7916     0.7916    -0.0000

  Mayer bond orders larger than 0.1
B(  0-C ,  1-O ) :   0.9790 B(  0-C ,  2-H ) :   0.9413 B(  0-C ,  3-H ) :   0.9411 
B(  0-C ,  4-H ) :   0.9493 B(  1-O ,  5-H ) :   0.7846 

-------
TIMINGS
-------

Total SCF time: 0 days 0 hours 0 min 3 sec 

Total time                  ....       3.718 sec
Sum of individual times     ....       3.546 sec  ( 95.4%)

Fock matrix formation       ....       3.098 sec  ( 83.3%)
  XC integration            ....       0.983 sec  ( 31.7% of F)
    Basis function eval.    ....       0.372 sec  ( 37.9% of XC)
    Density eval.           ....       0.045 sec  (  4.6% of XC)
    XC-Functional eval.     ....       0.246 sec  ( 25.0% of XC)
    XC-Potential eval.      ....       0.051 sec  (  5.2% of XC)
Diagonalization             ....       0.006 sec  (  0.2%)
Density matrix formation    ....       0.000 sec  (  0.0%)
Population analysis         ....       0.012 sec  (  0.3%)
Initial guess               ....       0.146 sec  (  3.9%)
Orbital Transformation      ....       0.000 sec  (  0.0%)
Orbital Orthonormalization  ....       0.000 sec  (  0.0%)
DIIS solution               ....       0.000 sec  (  0.0%)
Grid generation             ....       0.284 sec  (  7.6%)


-------------------------------------------------------------------------------
                          DFT DISPERSION CORRECTION                            
                                                                               
                              DFTD3 V3.1  Rev 1                                
                              USING zero damping                               
-------------------------------------------------------------------------------
The omegaB97X-D3 functional is recognized. Fit by Chai et al.
Active option DFTDOPT                   ...         3   

molecular C6(AA) [au] = 208.685141 


            DFT-D V3
 parameters
 s6 scaling factor         :     1.0000 
 rs6 scaling factor        :     1.2810 
 s8 scaling factor         :     1.0000 
 rs8 scaling factor        :     1.0940 
 Damping factor alpha6     :    14.0000 
 Damping factor alpha8     :    16.0000 
 ad hoc parameters k1-k3   :    16.0000     1.3333    -4.0000 

 Edisp/kcal,au: -0.139965043654  -0.000223048471 
 E6   /kcal   :  -0.027639733 
 E8   /kcal   :  -0.112325310 
 % E8         :  80.252402719 

-------------------------   ----------------
Dispersion correction           -0.000223048
-------------------------   ----------------


-------------------------   --------------------
FINAL SINGLE POINT ENERGY      -115.675639459153
-------------------------   --------------------


                            ***************************************
                            *     ORCA property calculations      *
                            ***************************************

                                    ---------------------
                                    Active property flags
                                    ---------------------
   (+) Dipole Moment


------------------------------------------------------------------------------
                       ORCA ELECTRIC PROPERTIES CALCULATION
------------------------------------------------------------------------------

Dipole Moment Calculation                       ... on
Quadrupole Moment Calculation                   ... off
Polarizability Calculation                      ... off
GBWName                                         ... Scan_9.gbw
Electron density file                           ... Scan_9.scfp.tmp

-------------
DIPOLE MOMENT
-------------
                                X             Y             Z
Electronic contribution:      1.81482      -0.22879      -0.26313
Nuclear contribution   :     -2.00521       0.63588       0.71108
                        -----------------------------------------
Total Dipole Moment    :     -0.19040       0.40709       0.44795
                        -----------------------------------------
Magnitude (a.u.)       :      0.63453
Magnitude (Debye)      :      1.61285


Timings for individual modules:

Sum of individual times         ...        4.056 sec (=   0.068 min)
GTO integral calculation        ...        0.302 sec (=   0.005 min)   7.5 %
SCF iterations                  ...        3.753 sec (=   0.063 min)  92.5 %
                             ****ORCA TERMINATED NORMALLY****
TOTAL RUN TIME: 0 days 0 hours 0 minutes 4 seconds 384 msec
