2
Point_1/orca1.out	Energy:    -100.3676199
F         -0.38731        0.93693        0.00000
H          0.40386        0.93693        0.00000
