2
Point_12/orca12.out	Energy:    -100.2664920
F         -0.77145        0.93693       -0.00000
H          0.78800        0.93693        0.00000
