2
Point_13/orca13.out	Energy:    -100.2419204
F         -0.82942        0.93693       -0.00000
H          0.84597        0.93693        0.00000
