2
Point_14/orca14.out	Energy:    -100.2197892
F         -0.88669        0.93693       -0.00000
H          0.90324        0.93693       -0.00000
