2
Point_19/orca19.out	Energy:    -100.1414668
F         -1.15805        0.93693        0.00000
H          1.17460        0.93693       -0.00000
