2
Point_20/orca20.out	Energy:    -100.1305323
F         -1.21028        0.93693        0.00000
H          1.22683        0.93693       -0.00000
