2
Point_21/orca21.out	Energy:    -100.1206866
F         -1.26218        0.93693        0.00000
H          1.27873        0.93693       -0.00000
