2
Point_23/orca23.out	Energy:     -99.9269631
F         -1.36538        0.93693        0.00000
H          1.38193        0.93693       -0.00000
