2
Point_25/orca25.out	Energy:    -100.0899031
F         -1.46811        0.93693        0.00000
H          1.48466        0.93693       -0.00000
