2
Point_27/orca27.out	Energy:     -99.9019723
F         -1.57062        0.93693        0.00000
H          1.58717        0.93693       -0.00000
