2
Point_28/orca28.out	Energy:     -99.8965486
F         -1.62183        0.93693        0.00000
H          1.63838        0.93693       -0.00000
