2
Point_29/orca29.out	Energy:     -99.8914524
F         -1.67302        0.93693        0.00000
H          1.68957        0.93693       -0.00000
