2
Point_3/orca3.out	Energy:    -100.3868544
F         -0.41369        0.93693       -0.00000
H          0.43024        0.93693       -0.00000
