2
Point_35/orca35.out	Energy:     -99.8666072
F         -1.98003        0.93693        0.00000
H          1.99658        0.93693       -0.00000
