2
Point_38/orca38.out	Energy:     -99.8569641
F         -2.13349        0.93693        0.00000
H          2.15004        0.93693       -0.00000
