2
Point_39/orca39.out	Energy:     -99.8540547
F         -2.18465        0.93693        0.00000
H          2.20120        0.93693       -0.00000
