2
Point_43/orca43.out	Energy:     -99.8436785
F         -2.38924        0.93693        0.00000
H          2.40579        0.93693       -0.00000
