2
Point_44/orca44.out	Energy:     -99.8413602
F         -2.44039        0.93693        0.00000
H          2.45694        0.93693       -0.00000
