2
Point_45/orca45.out	Energy:     -99.8391414
F         -2.49153        0.93693        0.00000
H          2.50808        0.93693       -0.00000
