2
Point_5/orca5.out	Energy:    -100.3963197
F         -0.45241        0.93693       -0.00000
H          0.46896        0.93693       -0.00000
