2
Point_6/orca6.out	Energy:    -100.3943503
F         -0.47936        0.93693       -0.00000
H          0.49591        0.93693       -0.00000
