2
Point_7/orca7.out	Energy:    -100.3855147
F         -0.51394        0.93693       -0.00000
H          0.53049        0.93693        0.00000
