2
Point_8/orca8.out	Energy:    -100.3687329
F         -0.55683        0.93693       -0.00000
H          0.57338        0.93693        0.00000
