2
Point_9/orca9.out	Energy:    -100.3457393
F         -0.60592        0.93693       -0.00000
H          0.62247        0.93693        0.00000
