2
Point_10/orca10.out	Energy:    -100.3197208
F         -0.65861        0.93693       -0.00000
H          0.67516        0.93693        0.00000
