2
Point_11/orca11.out	Energy:    -100.2928833
F         -0.71394        0.93693       -0.00000
H          0.73049        0.93693        0.00000
