2
Point_15/orca15.out	Energy:    -100.2001392
F         -0.94286        0.93693       -0.00000
H          0.95941        0.93693       -0.00000
