2
Point_16/orca16.out	Energy:    -100.1827540
F         -0.99793        0.93693       -0.00000
H          1.01448        0.93693       -0.00000
