2
Point_17/orca17.out	Energy:    -100.0068331
F         -1.05205        0.93693       -0.00000
H          1.06860        0.93693       -0.00000
