2
Point_18/orca18.out	Energy:    -100.1536719
F         -1.10536        0.93693       -0.00000
H          1.12191        0.93693       -0.00000
