2
Point_2/orca2.out	Energy:    -100.3780517
F         -0.39939        0.93693        0.00000
H          0.41594        0.93693        0.00000
