2
Point_22/orca22.out	Energy:     -99.9338543
F         -1.31386        0.93693        0.00000
H          1.33041        0.93693       -0.00000
