2
Point_24/orca24.out	Energy:    -100.0964716
F         -1.41678        0.93693        0.00000
H          1.43334        0.93693       -0.00000
