2
Point_26/orca26.out	Energy:    -100.0839702
F         -1.51938        0.93693        0.00000
H          1.53593        0.93693       -0.00000
