2
Point_30/orca30.out	Energy:     -99.8866661
F         -1.72420        0.93693        0.00000
H          1.74076        0.93693       -0.00000
