2
Point_31/orca31.out	Energy:     -99.8821669
F         -1.77538        0.93693        0.00000
H          1.79193        0.93693       -0.00000
