2
Point_32/orca32.out	Energy:     -99.8779347
F         -1.82655        0.93693        0.00000
H          1.84310        0.93693       -0.00000
