2
Point_33/orca33.out	Energy:     -99.8739493
F         -1.87771        0.93693        0.00000
H          1.89426        0.93693       -0.00000
