2
Point_34/orca34.out	Energy:     -99.8701804
F         -1.92887        0.93693        0.00000
H          1.94542        0.93693       -0.00000
