2
Point_36/orca36.out	Energy:     -99.8632237
F         -2.03119        0.93693        0.00000
H          2.04774        0.93693       -0.00000
