2
Point_37/orca37.out	Energy:     -99.8600162
F         -2.08234        0.93693        0.00000
H          2.09889        0.93693       -0.00000
