2
Point_4/orca4.out	Energy:    -100.3932788
F         -0.43087        0.93693       -0.00000
H          0.44742        0.93693       -0.00000
