2
Point_40/orca40.out	Energy:     -99.8512815
F         -2.23580        0.93693        0.00000
H          2.25235        0.93693       -0.00000
