2
Point_41/orca41.out	Energy:     -99.8486343
F         -2.28695        0.93693        0.00000
H          2.30350        0.93693       -0.00000
