2
Point_42/orca42.out	Energy:     -99.8461021
F         -2.33810        0.93693        0.00000
H          2.35465        0.93693       -0.00000
