
                                 *****************
                                 * O   R   C   A *
                                 *****************

           --- An Ab Initio, DFT and Semiempirical electronic structure package ---

                  #######################################################
                  #                        -***-                        #
                  #  Department of molecular theory and spectroscopy    #
                  #              Directorship: Frank Neese              #
                  # Max Planck Institute for Chemical Energy Conversion #
                  #                  D-45470 Muelheim/Ruhr              #
                  #                       Germany                       #
                  #                                                     #
                  #                  All rights reserved                #
                  #                        -***-                        #
                  #######################################################


                         Program Version 4.0.0.2 - RELEASE -


 With contributions from (in alphabetic order):
   Daniel Aravena         : Magnetic Properties
   Michael Atanasov       : Ab Initio Ligand Field Theory
   Ute Becker             : Parallelization
   Martin Brehm           : Molecular dynamics
   Dmytro Bykov           : SCF Hessian
   Vijay G. Chilkuri      : MRCI spin determinant printing
   Dipayan Datta          : RHF DLPNO-CCSD density
   Achintya Kumar Dutta   : EOM-CC, STEOM-CC
   Dmitry Ganyushin       : Spin-Orbit,Spin-Spin,Magnetic field MRCI
   Yang Guo               : DLPNO-NEVPT2, CIM, IAO-localization
   Andreas Hansen         : Spin unrestricted coupled pair/coupled cluster methods
   Lee Huntington         : MR-EOM, pCC
   Robert Izsak           : Overlap fitted RIJCOSX, COSX-SCS-MP3, EOM
   Christian Kollmar      : KDIIS, OOCD, Brueckner-CCSD(T), CCSD density
   Simone Kossmann        : Meta GGA functionals, TD-DFT gradient, OOMP2, MP2 Hessian
   Martin Krupicka        : AUTO-CI
   Dagmar Lenk            : GEPOL surface
   Dimitrios Liakos       : Extrapolation schemes; parallel MDCI
   Dimitrios Manganas     : ROCIS; embedding schemes
   Dimitrios Pantazis     : SARC Basis sets
   Taras Petrenko         : DFT Hessian,TD-DFT gradient, ASA, ECA, R-Raman, ABS, FL, XAS/XES, NRVS
   Peter Pinski           : DLPNO-MP2
   Christoph Reimann      : Effective Core Potentials
   Marius Retegan         : Local ZFS, SOC
   Christoph Riplinger    : Optimizer, TS searches, QM/MM, DLPNO-CCSD(T), (RO)-DLPNO pert. Triples
   Tobias Risthaus        : Range-separated hybrids, TD-DFT gradient, RPA, STAB
   Michael Roemelt        : Restricted open shell CIS
   Masaaki Saitow         : Open-shell DLPNO
   Barbara Sandhoefer     : DKH picture change effects
   Kantharuban Sivalingam : CASSCF convergence, NEVPT2, FIC-MRCI
   Georgi Stoychev        : AutoAux
   Boris Wezisla          : Elementary symmetry handling
   Frank Wennmohs         : Technical directorship


 We gratefully acknowledge several colleagues who have allowed us to
 interface, adapt or use parts of their codes:
   Stefan Grimme, W. Hujo, H. Kruse,             : VdW corrections, initial TS optimization,
                  C. Bannwarth                     DFT functionals, gCP, sTDA/sTD-DF
   Ed Valeev                                     : LibInt (2-el integral package), F12 methods
   Garnet Chan, S. Sharma, J. Yang, R. Olivares  : DMRG
   Ulf Ekstrom                                   : XCFun DFT Library
   Mihaly Kallay                                 : mrcc  (arbitrary order and MRCC methods)
   Jiri Pittner, Ondrej Demel                    : Mk-CCSD
   Frank Weinhold                                : gennbo (NPA and NBO analysis)
   Christopher J. Cramer and Donald G. Truhlar   : smd solvation model


 Your calculation uses the libint2 library for the computation of 2-el integrals
 For citations please refer to: http://libint.valeyev.net

 This ORCA versions uses:
   CBLAS   interface :  Fast vector & matrix operations
   LAPACKE interface :  Fast linear algebra routines
   SCALAPACK package :  Parallel linear algebra routines


Your calculation utilizes the atom-pairwise dispersion correction
with the zero-damping scheme (D30)
Cite in your paper:
S.Grimme, J.Antony, S.Ehrlich and H.Krieg, J.Chem.Phys., 132, (2010), 154104 
   

XCFun DFT library Copyright 2009-2010 Ulf Ekstrom and contributors.
See http://admol.org/xcfun for more information. This is free soft-
ware; see the source code for copying conditions. There is ABSOLUTELY
NO WARRANTY; not even for MERCHANTABILITY or FITNESS FOR A PARTICULAR
PURPOSE. For details see the documentation. Scientific users of this 
library should cite U. Ekstrom, L. Visscher, R. Bast, A. J. Thorvald-
sen and K. Ruud; J.Chem.Theor.Comp. 2010, DOI: 10.1021/ct100117s
XCFun Version 0.99 
Your calculation utilizes the basis: 6-31G(d)
   H-He, Li-Ne : W. J. Hehre, R. Ditchfield and J.A. Pople, J. Chem. Phys. 56, 2257 (1972).
                 Note: He and Ne are unpublished basis sets taken from the Gaussian program.
                 Note: Li and B from J. D. Dill and J. A. Pople, J. Chem. Phys. 62, 2921 (1975).
   Na - Ar     : M. M. Francl, W. J. Pietro, W. J. Hehre, J. S. Binkley, M. S. Gordon, 
                 D. J. DeFrees and J. A. Pople, J. Chem. Phys. 77, 3654 (1982).
   K - Zn      : V. A. Rassolov, J. A. Pople, M. A. Ratner, and T. L. Windus, J. Chem. Phys. 109, 1223 (1998).

================================================================================
                                        WARNINGS
                       Please study these warnings very carefully!
================================================================================

Warning: TCutStore was < 0. Adjusted to Thresh (uncritical)

INFO   : the flag for use of LIBINT has been found!

================================================================================
                                       INPUT FILE
================================================================================
NAME = initial10.inp
|  1> ! WB97X-D3 6-31G(d) VerySlowConv
|  2> ! KDIIS NOSOSCF
|  3> %base "Scan_10"
|  4> 
|  5> %scf
|  6> maxiter 999
|  7> end
|  8> 
|  9> * xyz 0 1
| 10> C          1.528017239484   -2.850044668334    0.000000000000
| 11> H          2.603848744101   -2.932406045222    0.000000000000
| 12> C          0.921646166815   -1.585708158585   -0.000000000000
| 13> H          1.530888963572   -0.695191433747   -0.000000000000
| 14> C         -0.476486906330   -1.478672656562   -0.000000000000
| 15> H         -0.943075614000   -0.505794555152   -0.000000000000
| 16> C         -1.268248906146   -2.635973664936    0.000000000000
| 17> H         -2.344080410727   -2.553612287586    0.000000000000
| 18> C         -0.661877833429   -3.900310174784   -0.000000000000
| 19> H         -1.271120629803   -4.790826899884   -0.000000000000
| 20> C          0.736255239606   -4.007345676799   -0.000000000000
| 21> H          1.202843946859   -4.980223778409   -0.000000000000
| 22> **                         ****END OF INPUT****
================================================================================

                       ****************************
                       * Single Point Calculation *
                       ****************************

---------------------------------
CARTESIAN COORDINATES (ANGSTROEM)
---------------------------------
  C      1.528017   -2.850045    0.000000
  H      2.603849   -2.932406    0.000000
  C      0.921646   -1.585708   -0.000000
  H      1.530889   -0.695191   -0.000000
  C     -0.476487   -1.478673   -0.000000
  H     -0.943076   -0.505795   -0.000000
  C     -1.268249   -2.635974    0.000000
  H     -2.344080   -2.553612    0.000000
  C     -0.661878   -3.900310   -0.000000
  H     -1.271121   -4.790827   -0.000000
  C      0.736255   -4.007346   -0.000000
  H      1.202844   -4.980224   -0.000000

----------------------------
CARTESIAN COORDINATES (A.U.)
----------------------------
  NO LB      ZA    FRAG     MASS         X           Y           Z
   0 C     6.0000    0    12.011    2.887534   -5.385804    0.000000
   1 H     1.0000    0     1.008    4.920561   -5.541444    0.000000
   2 C     6.0000    0    12.011    1.741659   -2.996554   -0.000000
   3 H     1.0000    0     1.008    2.892961   -1.313721   -0.000000
   4 C     6.0000    0    12.011   -0.900430   -2.794286   -0.000000
   5 H     1.0000    0     1.008   -1.782155   -0.955813   -0.000000
   6 C     6.0000    0    12.011   -2.396643   -4.981268    0.000000
   7 H     1.0000    0     1.008   -4.429670   -4.825628    0.000000
   8 C     6.0000    0    12.011   -1.250768   -7.370518   -0.000000
   9 H     1.0000    0     1.008   -2.402070   -9.053351   -0.000000
  10 C     6.0000    0    12.011    1.391321   -7.572786   -0.000000
  11 H     1.0000    0     1.008    2.273046   -9.411259   -0.000000

--------------------------------
INTERNAL COORDINATES (ANGSTROEM)
--------------------------------
 C      0   0   0     0.000000000000     0.00000000     0.00000000
 H      1   0   0     1.078979528411     0.00000000     0.00000000
 C      1   2   0     1.402224193078   120.00000000     0.00000000
 H      3   1   2     1.078979528358   120.00000001     0.00000000
 C      3   1   2     1.402224193528   120.00000001   180.00000000
 H      5   3   1     1.078979528225   120.00000001   180.00000000
 C      5   3   1     1.402224193321   119.99999998     0.00000000
 H      7   5   3     1.078979528410   119.99999996   180.00000000
 C      7   5   3     1.402224193188   120.00000002     0.00000000
 H      9   7   5     1.078979528358   120.00000004   180.00000000
 C      9   7   5     1.402224193418   120.00000001     0.00000000
 H     11   9   7     1.078979528225   119.99999999   180.00000000

---------------------------
INTERNAL COORDINATES (A.U.)
---------------------------
 C      0   0   0     0.000000000000     0.00000000     0.00000000
 H      1   0   0     2.038975812804     0.00000000     0.00000000
 C      1   2   0     2.649819703277   120.00000000     0.00000000
 H      3   1   2     2.038975812705   120.00000001     0.00000000
 C      3   1   2     2.649819704126   120.00000001   180.00000000
 H      5   3   1     2.038975812452   120.00000001   180.00000000
 C      5   3   1     2.649819703736   119.99999998     0.00000000
 H      7   5   3     2.038975812803   119.99999996   180.00000000
 C      7   5   3     2.649819703485   120.00000002     0.00000000
 H      9   7   5     2.038975812705   120.00000004   180.00000000
 C      9   7   5     2.649819703918   120.00000001     0.00000000
 H     11   9   7     2.038975812453   119.99999999   180.00000000

---------------------
BASIS SET INFORMATION
---------------------
There are 2 groups of distinct atoms

 Group   1 Type C   : 10s4p1d contracted to 3s2p1d pattern {631/31/1}
 Group   2 Type H   : 4s contracted to 2s pattern {31}

Atom   0C    basis set group =>   1
Atom   1H    basis set group =>   2
Atom   2C    basis set group =>   1
Atom   3H    basis set group =>   2
Atom   4C    basis set group =>   1
Atom   5H    basis set group =>   2
Atom   6C    basis set group =>   1
Atom   7H    basis set group =>   2
Atom   8C    basis set group =>   1
Atom   9H    basis set group =>   2
Atom  10C    basis set group =>   1
Atom  11H    basis set group =>   2
------------------------------------------------------------------------------
                           ORCA GTO INTEGRAL CALCULATION
------------------------------------------------------------------------------

                         BASIS SET STATISTICS AND STARTUP INFO

 # of primitive gaussian shells          ...  114
 # of primitive gaussian functions       ...  186
 # of contracted shells                  ...   48
 # of contracted basis functions         ...   96
 Highest angular momentum                ...    2
 Maximum contraction depth               ...    6
 Integral package used                   ... LIBINT
 Integral threshhold            Thresh   ...  1.000e-10
 Primitive cut-off              TCut     ...  1.000e-11


------------------------------ INTEGRAL EVALUATION ----------------------------


 * One electron integrals 
 Pre-screening matrix                    ... done
 Shell pair data                         ... done (   0.001 sec)

-------------------------------------------------------------------------------
                                 ORCA SCF
-------------------------------------------------------------------------------

------------
SCF SETTINGS
------------
Hamiltonian:
 Density Functional     Method          .... DFT(GTOs)
 Exchange Functional    Exchange        .... WB97X-D3
 Correlation Functional Correlation     .... WB97X-D3
 Gradients option       PostSCFGGA      .... off
 Hybrid DFT is turned on
   Fraction HF Exchange ScalHFX         ....  0.195728
   Scaling of DF-GGA-X  ScalDFX         ....  0.000000
   Scaling of DF-GGA-C  ScalDFC         ....  1.000000
   Scaling of DF-LDA-C  ScalLDAC        ....  1.000000
   Perturbative correction              ....  0.000000
 Long-range corrected/Screened/Range-Separated Hybrid DFT is turned on
   Amount of maximum screened exact exchange              ....  0.804272
   Range separation parameter mu (erf(mu*r12)/r12)        ....  0.250000


General Settings:
 Integral files         IntName         .... Scan_10
 Hartree-Fock type      HFTyp           .... RHF
 Total Charge           Charge          ....    0
 Multiplicity           Mult            ....    1
 Number of Electrons    NEL             ....   42
 Basis Dimension        Dim             ....   96
 Nuclear Repulsion      ENuc            ....    202.7235144588 Eh

Convergence Acceleration:
 DIIS                   CNVDIIS         .... on
   Start iteration      DIISMaxIt       ....     0
   Startup error        DIISStart       ....  0.200000
   # of expansion vecs  DIISMaxEq       ....     5
   Bias factor          DIISBfac        ....   1.050
   Max. coefficient     DIISMaxC        ....  10.000
 Newton-Raphson         CNVNR           .... off
 SOSCF                  CNVSOSCF        .... off
 Level Shifting         CNVShift        .... off
 Zerner damping         CNVZerner       .... off
 Static damping         CNVDamp         .... off
 Fernandez-Rico         CNVRico         .... off

SCF Procedure:
 Maximum # iterations   MaxIter         ....   999
 SCF integral mode      SCFMode         .... Direct
   Integral package                     .... LIBINT
 Reset frequeny         DirectResetFreq ....    20
 Integral Threshold     Thresh          ....  1.000e-10 Eh
 Primitive CutOff       TCut            ....  1.000e-11 Eh

Convergence Tolerance:
 Convergence Check Mode ConvCheckMode   .... All-Criteria
 Convergence forced     ConvForced      .... 0
 Energy Change          TolE            ....  1.000e-06 Eh
 Max Density Change     TolMaxP         ....  1.000e-05
 RMS Density Change     TolRMSP         ....  1.000e-06
 DIIS Error             TolErr          ....  1.000e-06


Diagonalization of the overlap matrix:
Smallest eigenvalue                        ... 5.537e-04
Time for diagonalization                   ...    0.003 sec
Threshold for overlap eigenvalues          ... 1.000e-08
Number of eigenvalues below threshold      ... 0
Time for construction of square roots      ...    0.005 sec
Total time needed                          ...    0.008 sec

-------------------
DFT GRID GENERATION
-------------------

General Integration Accuracy     IntAcc      ...  4.340
Radial Grid Type                 RadialGrid  ... Gauss-Chebyshev
Angular Grid (max. acc.)         AngularGrid ... Lebedev-110
Angular grid pruning method      GridPruning ... 3 (G Style)
Weight generation scheme         WeightScheme... Becke
Basis function cutoff            BFCut       ...    1.0000e-10
Integration weight cutoff        WCut        ...    1.0000e-14
Grids for H and He will be reduced by one unit

# of grid points (after initial pruning)     ...  14700 (   0.0 sec)
# of grid points (after weights+screening)   ...  13770 (   0.0 sec)
nearest neighbour list constructed           ...    0.0 sec
Grid point re-assignment to atoms done       ...    0.0 sec
Grid point division into batches done        ...    0.0 sec
Reduced shell lists constructed in    0.2 sec

Total number of grid points                  ...    13770
Total number of batches                      ...      220
Average number of points per batch           ...       62
Average number of grid points per atom       ...     1148
Average number of shells per batch           ...    37.39 (77.89%)
Average number of basis functions per batch  ...    77.27 (80.49%)
Average number of large shells per batch     ...    30.97 (82.83%)
Average number of large basis fcns per batch ...    64.34 (83.27%)
Maximum spatial batch extension              ...  18.02, 20.22, 25.60 au
Average spatial batch extension              ...   3.69,  4.10,  5.15 au

Time for grid setup =    0.239 sec

------------------------------
INITIAL GUESS: MODEL POTENTIAL
------------------------------
Loading Hartree-Fock densities                     ... done
Calculating cut-offs                               ... done
Setting up the integral package                    ... done
Initializing the effective Hamiltonian             ... done
Starting the Coulomb interaction                   ... done (   0.1 sec)
Reading the grid                                   ... done
Mapping shells                                     ... done
Starting the XC term evaluation                    ... done (   0.2 sec)
  promolecular density results
     # of electrons  =     42.003398071
     EX              =    -32.417086239
     EC              =     -1.366797204
     EX+EC           =    -33.783883443
Transforming the Hamiltonian                       ... done (   0.0 sec)
Diagonalizing the Hamiltonian                      ... done (   0.0 sec)
Back transforming the eigenvectors                 ... done (   0.0 sec)
Now organizing SCF variables                       ... done
                      ------------------
                      INITIAL GUESS DONE (   0.6 sec)
                      ------------------
--------------
SCF ITERATIONS
--------------
ITER       Energy         Delta-E        Max-DP      RMS-DP      [F,P]   Gradient Norm
               ***  Starting incremental Fock matrix formation  ***
                             ****Resetting KDIIS****
                             ****Turning on KDIIS(Cayley)****
  0   -232.0460215839   0.000000000000 0.01512146  0.00093417  0.0814724   0.069949911
  1   -232.0819587426  -0.035937158686 0.01380633  0.00106144  0.0698430   0.058881769
  2   -232.1124288399  -0.030470097339 0.02236155  0.00171978  0.0565201   0.047834552
  3   -232.1490913069  -0.036662466995 0.03380025  0.00255683  0.0343849   0.029256695
  4   -232.1707926706  -0.021701363744 0.00164687  0.00017998  0.0010566   0.000965228
  5   -232.1708249281  -0.000032257434 0.00067480  0.00007229  0.0003451   0.000200097
                          ***Energy convergence achieved***
  6   -232.1708259046  -0.000000976563 0.00027326  0.00002656  0.0001877   0.000150310

            ***Energy convergence in two consecutive cycles with***
                    ***'reasonable' density convergence***
                       *** signaling convergence ***

                    *** KDIIS BlockDiag ( 0.001 sec) ***

               *****************************************************
               *                     SUCCESS                       *
               *           SCF CONVERGED AFTER   7 CYCLES          *
               *****************************************************

Setting up the final grid:

General Integration Accuracy     IntAcc      ...  4.670
Radial Grid Type                 RadialGrid  ... Gauss-Chebyshev
Angular Grid (max. acc.)         AngularGrid ... Lebedev-302
Angular grid pruning method      GridPruning ... 3 (G Style)
Weight generation scheme         WeightScheme... Becke
Basis function cutoff            BFCut       ...    1.0000e-10
Integration weight cutoff        WCut        ...    1.0000e-14
Grids for H and He will be reduced by one unit

# of grid points (after initial pruning)     ...  57636 (   0.0 sec)
# of grid points (after weights+screening)   ...  53414 (   0.1 sec)
nearest neighbour list constructed           ...    0.0 sec
Grid point re-assignment to atoms done       ...    0.0 sec
Grid point division into batches done        ...    0.1 sec
Reduced shell lists constructed in    0.8 sec

Total number of grid points                  ...    53414
Total number of batches                      ...      838
Average number of points per batch           ...       63
Average number of grid points per atom       ...     4451
Average number of shells per batch           ...    34.08 (71.00%)
Average number of basis functions per batch  ...    70.41 (73.35%)
Average number of large shells per batch     ...    27.47 (80.60%)
Average number of large basis fcns per batch ...    56.65 (80.45%)
Maximum spatial batch extension              ...  15.20, 16.77, 17.88 au
Average spatial batch extension              ...   2.47,  2.59,  2.95 au

Final grid set up in    0.9 sec
Final integration                            ... done (   0.8 sec)
Change in XC energy                          ...     0.000726755
Integrated number of electrons               ...    41.999930296
Previous integrated no of electrons          ...    42.002171433

----------------
TOTAL SCF ENERGY
----------------

Total Energy       :         -232.17009988 Eh           -6317.66960 eV

Components:
Nuclear Repulsion  :          202.72351446 Eh            5516.38728 eV
Electronic Energy  :         -434.89361434 Eh          -11834.05688 eV
One Electron Energy:         -712.82655259 Eh          -19396.99662 eV
Two Electron Energy:          277.93293825 Eh            7562.93974 eV

Virial components:
Potential Energy   :         -462.74504659 Eh          -12591.93288 eV
Kinetic Energy     :          230.57494671 Eh            6274.26328 eV
Virial Ratio       :            2.00691815


DFT components:
N(Alpha)           :       20.999965147814 electrons
N(Beta)            :       20.999965147814 electrons
N(Total)           :       41.999930295628 electrons
E(XC)              :      -23.744081306754 Eh       

---------------
SCF CONVERGENCE
---------------

  Last Energy change         ...   -7.3007e-07  Tolerance :   1.0000e-06
  Last MAX-Density change    ...    9.0264e-05  Tolerance :   1.0000e-05
  Last RMS-Density change    ...    6.0494e-06  Tolerance :   1.0000e-06
  Last DIIS Error            ...    4.0241e-05  Tolerance :   1.0000e-06

             **** THE GBW FILE WAS UPDATED (Scan_10.gbw) ****
             **** DENSITY FILE WAS UPDATED (Scan_10.scfp.tmp) ****
             **** ENERGY FILE WAS UPDATED (Scan_10.en.tmp) ****
----------------
ORBITAL ENERGIES
----------------

  NO   OCC          E(Eh)            E(eV) 
   0   2.0000     -10.285150      -279.8731 
   1   2.0000     -10.285005      -279.8692 
   2   2.0000     -10.284918      -279.8668 
   3   2.0000     -10.284550      -279.8568 
   4   2.0000     -10.284454      -279.8542 
   5   2.0000     -10.284308      -279.8502 
   6   2.0000      -0.962967       -26.2037 
   7   2.0000      -0.854861       -23.2619 
   8   2.0000      -0.854815       -23.2607 
   9   2.0000      -0.706453       -19.2236 
  10   2.0000      -0.706392       -19.2219 
  11   2.0000      -0.623510       -16.9666 
  12   2.0000      -0.563546       -15.3349 
  13   2.0000      -0.535057       -14.5596 
  14   2.0000      -0.514350       -13.9962 
  15   2.0000      -0.514187       -13.9917 
  16   2.0000      -0.460846       -12.5402 
  17   2.0000      -0.431747       -11.7484 
  18   2.0000      -0.431568       -11.7436 
  19   2.0000      -0.329977        -8.9791 
  20   2.0000      -0.329795        -8.9742 
  21   0.0000       0.080893         2.2012 
  22   0.0000       0.081038         2.2052 
  23   0.0000       0.184691         5.0257 
  24   0.0000       0.242304         6.5934 
  25   0.0000       0.242817         6.6074 
  26   0.0000       0.258774         7.0416 
  27   0.0000       0.276793         7.5319 
  28   0.0000       0.277254         7.5445 
  29   0.0000       0.288243         7.8435 
  30   0.0000       0.392168        10.6714 
  31   0.0000       0.392559        10.6821 
  32   0.0000       0.404598        11.0097 
  33   0.0000       0.405102        11.0234 
  34   0.0000       0.570803        15.5323 
  35   0.0000       0.628303        17.0970 
  36   0.0000       0.645321        17.5601 
  37   0.0000       0.645443        17.5634 
  38   0.0000       0.658134        17.9087 
  39   0.0000       0.693144        18.8614 
  40   0.0000       0.703990        19.1566 
  41   0.0000       0.704127        19.1603 
  42   0.0000       0.705405        19.1950 
  43   0.0000       0.705760        19.2047 
  44   0.0000       0.732707        19.9380 
  45   0.0000       0.732981        19.9454 
  46   0.0000       0.771089        20.9824 
  47   0.0000       0.771888        21.0041 
  48   0.0000       0.849125        23.1059 
  49   0.0000       0.957268        26.0486 
  50   0.0000       0.957412        26.0525 
  51   0.0000       0.957761        26.0620 
  52   0.0000       0.979568        26.6554 
  53   0.0000       0.979819        26.6622 
  54   0.0000       1.043828        28.4040 
  55   0.0000       1.044100        28.4114 
  56   0.0000       1.056195        28.7405 
  57   0.0000       1.066095        29.0099 
  58   0.0000       1.183266        32.1983 
  59   0.0000       1.183349        32.2006 
  60   0.0000       1.240081        33.7443 
  61   0.0000       1.240863        33.7656 
  62   0.0000       1.303773        35.4775 
  63   0.0000       1.355593        36.8876 
  64   0.0000       1.489337        40.5269 
  65   0.0000       1.540755        41.9261 
  66   0.0000       1.541031        41.9336 
  67   0.0000       1.579884        42.9908 
  68   0.0000       1.580585        43.0099 
  69   0.0000       1.607801        43.7505 
  70   0.0000       1.608271        43.7633 
  71   0.0000       1.858145        50.5627 
  72   0.0000       1.883772        51.2601 
  73   0.0000       1.965550        53.4853 
  74   0.0000       2.004720        54.5512 
  75   0.0000       2.083808        56.7033 
  76   0.0000       2.084920        56.7336 
  77   0.0000       2.160995        58.8037 
  78   0.0000       2.161695        58.8227 
  79   0.0000       2.242089        61.0103 
  80   0.0000       2.242479        61.0210 
  81   0.0000       2.245974        61.1161 
  82   0.0000       2.247264        61.1512 
  83   0.0000       2.399931        65.3054 
  84   0.0000       2.400276        65.3148 
  85   0.0000       2.409212        65.5580 
  86   0.0000       2.643228        71.9259 
  87   0.0000       2.643918        71.9447 
  88   0.0000       2.742045        74.6148 
  89   0.0000       2.802624        76.2633 
  90   0.0000       2.803586        76.2894 
  91   0.0000       2.820065        76.7379 
  92   0.0000       2.821714        76.7827 
  93   0.0000       2.856895        77.7401 
  94   0.0000       3.115059        84.7651 
  95   0.0000       3.502234        95.3006 

                    ********************************
                    * MULLIKEN POPULATION ANALYSIS *
                    ********************************

-----------------------
MULLIKEN ATOMIC CHARGES
-----------------------
   0 C :   -0.169457
   1 H :    0.168341
   2 C :   -0.166524
   3 H :    0.167412
   4 C :   -0.165950
   5 H :    0.166177
   6 C :   -0.169457
   7 H :    0.168341
   8 C :   -0.166524
   9 H :    0.167412
  10 C :   -0.165950
  11 H :    0.166177
Sum of atomic charges:    0.0000000

--------------------------------
MULLIKEN REDUCED ORBITAL CHARGES
--------------------------------
  0 C s       :     3.180518  s :     3.180518
      pz      :     0.991522  p :     2.953086
      px      :     1.026373
      py      :     0.935191
      dz2     :     0.003385  d :     0.035852
      dxz     :     0.002020
      dyz     :     0.006337
      dx2y2   :     0.014473
      dxy     :     0.009637
  1 H s       :     0.831659  s :     0.831659
  2 C s       :     3.181539  s :     3.181539
      pz      :     0.991823  p :     2.949138
      px      :     0.961463
      py      :     0.995852
      dz2     :     0.003366  d :     0.035847
      dxz     :     0.004975
      dyz     :     0.003388
      dx2y2   :     0.010224
      dxy     :     0.013893
  3 H s       :     0.832588  s :     0.832588
  4 C s       :     3.181936  s :     3.181936
      pz      :     0.991566  p :     2.948170
      px      :     0.949661
      py      :     1.006943
      dz2     :     0.003384  d :     0.035844
      dxz     :     0.005557
      dyz     :     0.002812
      dx2y2   :     0.011484
      dxy     :     0.012608
  5 H s       :     0.833823  s :     0.833823
  6 C s       :     3.180518  s :     3.180518
      pz      :     0.991522  p :     2.953086
      px      :     1.026373
      py      :     0.935191
      dz2     :     0.003385  d :     0.035852
      dxz     :     0.002020
      dyz     :     0.006337
      dx2y2   :     0.014473
      dxy     :     0.009637
  7 H s       :     0.831659  s :     0.831659
  8 C s       :     3.181539  s :     3.181539
      pz      :     0.991823  p :     2.949138
      px      :     0.961463
      py      :     0.995852
      dz2     :     0.003366  d :     0.035847
      dxz     :     0.004975
      dyz     :     0.003388
      dx2y2   :     0.010224
      dxy     :     0.013893
  9 H s       :     0.832588  s :     0.832588
 10 C s       :     3.181936  s :     3.181936
      pz      :     0.991566  p :     2.948170
      px      :     0.949661
      py      :     1.006943
      dz2     :     0.003384  d :     0.035844
      dxz     :     0.005557
      dyz     :     0.002812
      dx2y2   :     0.011484
      dxy     :     0.012608
 11 H s       :     0.833823  s :     0.833823


                     *******************************
                     * LOEWDIN POPULATION ANALYSIS *
                     *******************************

----------------------
LOEWDIN ATOMIC CHARGES
----------------------
   0 C :   -0.139050
   1 H :    0.138814
   2 C :   -0.138791
   3 H :    0.138865
   4 C :   -0.138696
   5 H :    0.138858
   6 C :   -0.139050
   7 H :    0.138814
   8 C :   -0.138791
   9 H :    0.138865
  10 C :   -0.138696
  11 H :    0.138858

-------------------------------
LOEWDIN REDUCED ORBITAL CHARGES
-------------------------------
  0 C s       :     2.918001  s :     2.918001
      pz      :     0.983358  p :     3.137458
      px      :     1.081588
      py      :     1.072512
      dz2     :     0.005937  d :     0.083592
      dxz     :     0.003179
      dyz     :     0.013357
      dx2y2   :     0.034859
      dxy     :     0.026259
  1 H s       :     0.861186  s :     0.861186
  2 C s       :     2.918037  s :     2.918037
      pz      :     0.983655  p :     3.137113
      px      :     1.074994
      py      :     1.078464
      dz2     :     0.005923  d :     0.083641
      dxz     :     0.010138
      dyz     :     0.006404
      dx2y2   :     0.027315
      dxy     :     0.033862
  3 H s       :     0.861135  s :     0.861135
  4 C s       :     2.918055  s :     2.918055
      pz      :     0.983368  p :     3.137034
      px      :     1.074255
      py      :     1.079412
      dz2     :     0.005931  d :     0.083606
      dxz     :     0.011498
      dyz     :     0.005043
      dx2y2   :     0.029589
      dxy     :     0.031545
  5 H s       :     0.861142  s :     0.861142
  6 C s       :     2.918001  s :     2.918001
      pz      :     0.983358  p :     3.137458
      px      :     1.081588
      py      :     1.072512
      dz2     :     0.005937  d :     0.083592
      dxz     :     0.003179
      dyz     :     0.013357
      dx2y2   :     0.034859
      dxy     :     0.026259
  7 H s       :     0.861186  s :     0.861186
  8 C s       :     2.918037  s :     2.918037
      pz      :     0.983655  p :     3.137113
      px      :     1.074994
      py      :     1.078464
      dz2     :     0.005923  d :     0.083641
      dxz     :     0.010138
      dyz     :     0.006404
      dx2y2   :     0.027315
      dxy     :     0.033862
  9 H s       :     0.861135  s :     0.861135
 10 C s       :     2.918055  s :     2.918055
      pz      :     0.983368  p :     3.137034
      px      :     1.074255
      py      :     1.079412
      dz2     :     0.005931  d :     0.083606
      dxz     :     0.011498
      dyz     :     0.005043
      dx2y2   :     0.029589
      dxy     :     0.031545
 11 H s       :     0.861142  s :     0.861142


                      *****************************
                      * MAYER POPULATION ANALYSIS *
                      *****************************

  NA   - Mulliken gross atomic population
  ZA   - Total nuclear charge
  QA   - Mulliken gross atomic charge
  VA   - Mayer's total valence
  BVA  - Mayer's bonded valence
  FA   - Mayer's free valence

  ATOM       NA         ZA         QA         VA         BVA        FA
  0 C      6.1695     6.0000    -0.1695     3.9453     3.9453    -0.0000
  1 H      0.8317     1.0000     0.1683     0.9327     0.9327     0.0000
  2 C      6.1665     6.0000    -0.1665     3.9441     3.9441     0.0000
  3 H      0.8326     1.0000     0.1674     0.9330     0.9330    -0.0000
  4 C      6.1659     6.0000    -0.1659     3.9457     3.9457     0.0000
  5 H      0.8338     1.0000     0.1662     0.9335     0.9335    -0.0000
  6 C      6.1695     6.0000    -0.1695     3.9453     3.9453     0.0000
  7 H      0.8317     1.0000     0.1683     0.9327     0.9327    -0.0000
  8 C      6.1665     6.0000    -0.1665     3.9441     3.9441    -0.0000
  9 H      0.8326     1.0000     0.1674     0.9330     0.9330    -0.0000
 10 C      6.1659     6.0000    -0.1659     3.9457     3.9457    -0.0000
 11 H      0.8338     1.0000     0.1662     0.9335     0.9335     0.0000

  Mayer bond orders larger than 0.1
B(  0-C ,  1-H ) :   0.9326 B(  0-C ,  2-C ) :   1.4556 B(  0-C , 10-C ) :   1.4566 
B(  2-C ,  3-H ) :   0.9330 B(  2-C ,  4-C ) :   1.4556 B(  4-C ,  5-H ) :   0.9334 
B(  4-C ,  6-C ) :   1.4566 B(  6-C ,  7-H ) :   0.9326 B(  6-C ,  8-C ) :   1.4556 
B(  8-C ,  9-H ) :   0.9330 B(  8-C , 10-C ) :   1.4556 B( 10-C , 11-H ) :   0.9334 


-------
TIMINGS
-------

Total SCF time: 0 days 0 hours 0 min 34 sec 

Total time                  ....      34.101 sec
Sum of individual times     ....      33.961 sec  ( 99.6%)

Fock matrix formation       ....      32.421 sec  ( 95.1%)
  XC integration            ....       2.728 sec  (  8.4% of F)
    Basis function eval.    ....       1.396 sec  ( 51.2% of XC)
    Density eval.           ....       0.222 sec  (  8.1% of XC)
    XC-Functional eval.     ....       0.467 sec  ( 17.1% of XC)
    XC-Potential eval.      ....       0.398 sec  ( 14.6% of XC)
Diagonalization             ....       0.010 sec  (  0.0%)
Density matrix formation    ....       0.001 sec  (  0.0%)
Population analysis         ....       0.016 sec  (  0.0%)
Initial guess               ....       0.401 sec  (  1.2%)
Orbital Transformation      ....       0.000 sec  (  0.0%)
Orbital Orthonormalization  ....       0.000 sec  (  0.0%)
DIIS solution               ....       0.000 sec  (  0.0%)
Grid generation             ....       1.113 sec  (  3.3%)


-------------------------------------------------------------------------------
                          DFT DISPERSION CORRECTION                            
                                                                               
                              DFTD3 V3.1  Rev 1                                
                              USING zero damping                               
-------------------------------------------------------------------------------
The omegaB97X-D3 functional is recognized. Fit by Chai et al.
Active option DFTDOPT                   ...         3   

molecular C6(AA) [au] = 1660.800111 


            DFT-D V3
 parameters
 s6 scaling factor         :     1.0000 
 rs6 scaling factor        :     1.2810 
 s8 scaling factor         :     1.0000 
 rs8 scaling factor        :     1.0940 
 Damping factor alpha6     :    14.0000 
 Damping factor alpha8     :    16.0000 
 ad hoc parameters k1-k3   :    16.0000     1.3333    -4.0000 

 Edisp/kcal,au: -1.351571505273  -0.002153866064 
 E6   /kcal   :  -0.591753449 
 E8   /kcal   :  -0.759818056 
 % E8         :  56.217377539 

-------------------------   ----------------
Dispersion correction           -0.002153866
-------------------------   ----------------


-------------------------   --------------------
FINAL SINGLE POINT ENERGY      -232.172253745798
-------------------------   --------------------


                            ***************************************
                            *     ORCA property calculations      *
                            ***************************************

                                    ---------------------
                                    Active property flags
                                    ---------------------
   (+) Dipole Moment


------------------------------------------------------------------------------
                       ORCA ELECTRIC PROPERTIES CALCULATION
------------------------------------------------------------------------------

Dipole Moment Calculation                       ... on
Quadrupole Moment Calculation                   ... off
Polarizability Calculation                      ... off
GBWName                                         ... Scan_10.gbw
Electron density file                           ... Scan_10.scfp.tmp

-------------
DIPOLE MOMENT
-------------
                                X             Y             Z
Electronic contribution:      0.00000       0.00000      -0.00000
Nuclear contribution   :      0.00000      -0.00000       0.00000
                        -----------------------------------------
Total Dipole Moment    :      0.00000       0.00000      -0.00000
                        -----------------------------------------
Magnitude (a.u.)       :      0.00000
Magnitude (Debye)      :      0.00000


Timings for individual modules:

Sum of individual times         ...       34.434 sec (=   0.574 min)
GTO integral calculation        ...        0.309 sec (=   0.005 min)   0.9 %
SCF iterations                  ...       34.125 sec (=   0.569 min)  99.1 %
                             ****ORCA TERMINATED NORMALLY****
TOTAL RUN TIME: 0 days 0 hours 0 minutes 34 seconds 757 msec
