
                                 *****************
                                 * O   R   C   A *
                                 *****************

           --- An Ab Initio, DFT and Semiempirical electronic structure package ---

                  #######################################################
                  #                        -***-                        #
                  #  Department of molecular theory and spectroscopy    #
                  #              Directorship: Frank Neese              #
                  # Max Planck Institute for Chemical Energy Conversion #
                  #                  D-45470 Muelheim/Ruhr              #
                  #                       Germany                       #
                  #                                                     #
                  #                  All rights reserved                #
                  #                        -***-                        #
                  #######################################################


                         Program Version 4.0.0.2 - RELEASE -


 With contributions from (in alphabetic order):
   Daniel Aravena         : Magnetic Properties
   Michael Atanasov       : Ab Initio Ligand Field Theory
   Ute Becker             : Parallelization
   Martin Brehm           : Molecular dynamics
   Dmytro Bykov           : SCF Hessian
   Vijay G. Chilkuri      : MRCI spin determinant printing
   Dipayan Datta          : RHF DLPNO-CCSD density
   Achintya Kumar Dutta   : EOM-CC, STEOM-CC
   Dmitry Ganyushin       : Spin-Orbit,Spin-Spin,Magnetic field MRCI
   Yang Guo               : DLPNO-NEVPT2, CIM, IAO-localization
   Andreas Hansen         : Spin unrestricted coupled pair/coupled cluster methods
   Lee Huntington         : MR-EOM, pCC
   Robert Izsak           : Overlap fitted RIJCOSX, COSX-SCS-MP3, EOM
   Christian Kollmar      : KDIIS, OOCD, Brueckner-CCSD(T), CCSD density
   Simone Kossmann        : Meta GGA functionals, TD-DFT gradient, OOMP2, MP2 Hessian
   Martin Krupicka        : AUTO-CI
   Dagmar Lenk            : GEPOL surface
   Dimitrios Liakos       : Extrapolation schemes; parallel MDCI
   Dimitrios Manganas     : ROCIS; embedding schemes
   Dimitrios Pantazis     : SARC Basis sets
   Taras Petrenko         : DFT Hessian,TD-DFT gradient, ASA, ECA, R-Raman, ABS, FL, XAS/XES, NRVS
   Peter Pinski           : DLPNO-MP2
   Christoph Reimann      : Effective Core Potentials
   Marius Retegan         : Local ZFS, SOC
   Christoph Riplinger    : Optimizer, TS searches, QM/MM, DLPNO-CCSD(T), (RO)-DLPNO pert. Triples
   Tobias Risthaus        : Range-separated hybrids, TD-DFT gradient, RPA, STAB
   Michael Roemelt        : Restricted open shell CIS
   Masaaki Saitow         : Open-shell DLPNO
   Barbara Sandhoefer     : DKH picture change effects
   Kantharuban Sivalingam : CASSCF convergence, NEVPT2, FIC-MRCI
   Georgi Stoychev        : AutoAux
   Boris Wezisla          : Elementary symmetry handling
   Frank Wennmohs         : Technical directorship


 We gratefully acknowledge several colleagues who have allowed us to
 interface, adapt or use parts of their codes:
   Stefan Grimme, W. Hujo, H. Kruse,             : VdW corrections, initial TS optimization,
                  C. Bannwarth                     DFT functionals, gCP, sTDA/sTD-DF
   Ed Valeev                                     : LibInt (2-el integral package), F12 methods
   Garnet Chan, S. Sharma, J. Yang, R. Olivares  : DMRG
   Ulf Ekstrom                                   : XCFun DFT Library
   Mihaly Kallay                                 : mrcc  (arbitrary order and MRCC methods)
   Jiri Pittner, Ondrej Demel                    : Mk-CCSD
   Frank Weinhold                                : gennbo (NPA and NBO analysis)
   Christopher J. Cramer and Donald G. Truhlar   : smd solvation model


 Your calculation uses the libint2 library for the computation of 2-el integrals
 For citations please refer to: http://libint.valeyev.net

 This ORCA versions uses:
   CBLAS   interface :  Fast vector & matrix operations
   LAPACKE interface :  Fast linear algebra routines
   SCALAPACK package :  Parallel linear algebra routines


Your calculation utilizes the atom-pairwise dispersion correction
with the zero-damping scheme (D30)
Cite in your paper:
S.Grimme, J.Antony, S.Ehrlich and H.Krieg, J.Chem.Phys., 132, (2010), 154104 
   

XCFun DFT library Copyright 2009-2010 Ulf Ekstrom and contributors.
See http://admol.org/xcfun for more information. This is free soft-
ware; see the source code for copying conditions. There is ABSOLUTELY
NO WARRANTY; not even for MERCHANTABILITY or FITNESS FOR A PARTICULAR
PURPOSE. For details see the documentation. Scientific users of this 
library should cite U. Ekstrom, L. Visscher, R. Bast, A. J. Thorvald-
sen and K. Ruud; J.Chem.Theor.Comp. 2010, DOI: 10.1021/ct100117s
XCFun Version 0.99 
Your calculation utilizes the basis: 6-31G(d)
   H-He, Li-Ne : W. J. Hehre, R. Ditchfield and J.A. Pople, J. Chem. Phys. 56, 2257 (1972).
                 Note: He and Ne are unpublished basis sets taken from the Gaussian program.
                 Note: Li and B from J. D. Dill and J. A. Pople, J. Chem. Phys. 62, 2921 (1975).
   Na - Ar     : M. M. Francl, W. J. Pietro, W. J. Hehre, J. S. Binkley, M. S. Gordon, 
                 D. J. DeFrees and J. A. Pople, J. Chem. Phys. 77, 3654 (1982).
   K - Zn      : V. A. Rassolov, J. A. Pople, M. A. Ratner, and T. L. Windus, J. Chem. Phys. 109, 1223 (1998).

================================================================================
                                        WARNINGS
                       Please study these warnings very carefully!
================================================================================

Warning: TCutStore was < 0. Adjusted to Thresh (uncritical)

INFO   : the flag for use of LIBINT has been found!

================================================================================
                                       INPUT FILE
================================================================================
NAME = initial12.inp
|  1> ! WB97X-D3 6-31G(d) VerySlowConv
|  2> ! KDIIS NOSOSCF
|  3> %base "Scan_12"
|  4> 
|  5> %scf
|  6> maxiter 999
|  7> end
|  8> 
|  9> * xyz 0 1
| 10> C          1.646111783429   -2.859085281346   -0.000096582669
| 11> H          2.714586039146   -2.940884606762   -0.000016254092
| 12> C          0.988523121010   -1.487955404749   -0.000012496177
| 13> H          1.593600001806   -0.603528849151   -0.000002451022
| 14> C         -0.527704570626   -1.371879076065    0.000094894147
| 15> H         -0.991103044992   -0.405654340654    0.000016549059
| 16> C         -1.386343406256   -2.626932586818   -0.000068157318
| 17> H         -2.454817830061   -2.545135613158   -0.000012000891
| 18> C         -0.728754604896   -3.998062279001   -0.000040906707
| 19> H         -1.333830582110   -4.882489434922   -0.000006712749
| 20> C          0.787472885972   -4.114138638957    0.000123311644
| 21> H          1.250870207578   -5.080363888417    0.000020806776
| 22> **                         ****END OF INPUT****
================================================================================

                       ****************************
                       * Single Point Calculation *
                       ****************************

---------------------------------
CARTESIAN COORDINATES (ANGSTROEM)
---------------------------------
  C      1.646112   -2.859085   -0.000097
  H      2.714586   -2.940885   -0.000016
  C      0.988523   -1.487955   -0.000012
  H      1.593600   -0.603529   -0.000002
  C     -0.527705   -1.371879    0.000095
  H     -0.991103   -0.405654    0.000017
  C     -1.386343   -2.626933   -0.000068
  H     -2.454818   -2.545136   -0.000012
  C     -0.728755   -3.998062   -0.000041
  H     -1.333831   -4.882489   -0.000007
  C      0.787473   -4.114139    0.000123
  H      1.250870   -5.080364    0.000021

----------------------------
CARTESIAN COORDINATES (A.U.)
----------------------------
  NO LB      ZA    FRAG     MASS         X           Y           Z
   0 C     6.0000    0    12.011    3.110700   -5.402888   -0.000183
   1 H     1.0000    0     1.008    5.129824   -5.557466   -0.000031
   2 C     6.0000    0    12.011    1.868038   -2.811828   -0.000024
   3 H     1.0000    0     1.008    3.011468   -1.140504   -0.000005
   4 C     6.0000    0    12.011   -0.997217   -2.592476    0.000179
   5 H     1.0000    0     1.008   -1.872913   -0.766576    0.000031
   6 C     6.0000    0    12.011   -2.619809   -4.964183   -0.000129
   7 H     1.0000    0     1.008   -4.638933   -4.809609   -0.000023
   8 C     6.0000    0    12.011   -1.377147   -7.555243   -0.000077
   9 H     1.0000    0     1.008   -2.520575   -9.226568   -0.000013
  10 C     6.0000    0    12.011    1.488108   -7.774595    0.000233
  11 H     1.0000    0     1.008    2.363802   -9.600496    0.000039

--------------------------------
INTERNAL COORDINATES (ANGSTROEM)
--------------------------------
 C      0   0   0     0.000000000000     0.00000000     0.00000000
 H      1   0   0     1.071600845101     0.00000000     0.00000000
 C      1   2   0     1.520664326704   120.00005928     0.00000000
 H      3   1   2     1.071600841742   119.99997531     0.00000000
 C      3   1   2     1.520664374047   119.99999536   180.00963163
 H      5   3   1     1.071600854564   120.00003204   180.00849529
 C      5   3   1     1.520664325711   119.99999788     0.00000000
 H      7   5   3     1.071600831643   120.00005964   180.00120518
 C      7   5   3     1.520664218426   119.99999807     0.00000000
 H      9   7   5     1.071600827501   120.00002562   179.99079503
 C      9   7   5     1.520664181327   120.00000464     0.00000000
 H     11   9   7     1.071600821609   119.99996582   180.00751412

---------------------------
INTERNAL COORDINATES (A.U.)
---------------------------
 C      0   0   0     0.000000000000     0.00000000     0.00000000
 H      1   0   0     2.025032122119     0.00000000     0.00000000
 C      1   2   0     2.873639119094   120.00005928     0.00000000
 H      3   1   2     2.025032115771   119.99997531     0.00000000
 C      3   1   2     2.873639208561   119.99999536   180.00963163
 H      5   3   1     2.025032140002   120.00003204   180.00849529
 C      5   3   1     2.873639117219   119.99999788     0.00000000
 H      7   5   3     2.025032096688   120.00005964   180.00120518
 C      7   5   3     2.873638914479   119.99999807     0.00000000
 H      9   7   5     2.025032088861   120.00002562   179.99079503
 C      9   7   5     2.873638844372   120.00000464     0.00000000
 H     11   9   7     2.025032077726   119.99996582   180.00751412

---------------------
BASIS SET INFORMATION
---------------------
There are 2 groups of distinct atoms

 Group   1 Type C   : 10s4p1d contracted to 3s2p1d pattern {631/31/1}
 Group   2 Type H   : 4s contracted to 2s pattern {31}

Atom   0C    basis set group =>   1
Atom   1H    basis set group =>   2
Atom   2C    basis set group =>   1
Atom   3H    basis set group =>   2
Atom   4C    basis set group =>   1
Atom   5H    basis set group =>   2
Atom   6C    basis set group =>   1
Atom   7H    basis set group =>   2
Atom   8C    basis set group =>   1
Atom   9H    basis set group =>   2
Atom  10C    basis set group =>   1
Atom  11H    basis set group =>   2
------------------------------------------------------------------------------
                           ORCA GTO INTEGRAL CALCULATION
------------------------------------------------------------------------------

                         BASIS SET STATISTICS AND STARTUP INFO

 # of primitive gaussian shells          ...  114
 # of primitive gaussian functions       ...  186
 # of contracted shells                  ...   48
 # of contracted basis functions         ...   96
 Highest angular momentum                ...    2
 Maximum contraction depth               ...    6
 Integral package used                   ... LIBINT
 Integral threshhold            Thresh   ...  1.000e-10
 Primitive cut-off              TCut     ...  1.000e-11


------------------------------ INTEGRAL EVALUATION ----------------------------


 * One electron integrals 
 Pre-screening matrix                    ... done
 Shell pair data                         ... done (   0.001 sec)

-------------------------------------------------------------------------------
                                 ORCA SCF
-------------------------------------------------------------------------------

------------
SCF SETTINGS
------------
Hamiltonian:
 Density Functional     Method          .... DFT(GTOs)
 Exchange Functional    Exchange        .... WB97X-D3
 Correlation Functional Correlation     .... WB97X-D3
 Gradients option       PostSCFGGA      .... off
 Hybrid DFT is turned on
   Fraction HF Exchange ScalHFX         ....  0.195728
   Scaling of DF-GGA-X  ScalDFX         ....  0.000000
   Scaling of DF-GGA-C  ScalDFC         ....  1.000000
   Scaling of DF-LDA-C  ScalLDAC        ....  1.000000
   Perturbative correction              ....  0.000000
 Long-range corrected/Screened/Range-Separated Hybrid DFT is turned on
   Amount of maximum screened exact exchange              ....  0.804272
   Range separation parameter mu (erf(mu*r12)/r12)        ....  0.250000


General Settings:
 Integral files         IntName         .... Scan_12
 Hartree-Fock type      HFTyp           .... RHF
 Total Charge           Charge          ....    0
 Multiplicity           Mult            ....    1
 Number of Electrons    NEL             ....   42
 Basis Dimension        Dim             ....   96
 Nuclear Repulsion      ENuc            ....    189.4672632328 Eh

Convergence Acceleration:
 DIIS                   CNVDIIS         .... on
   Start iteration      DIISMaxIt       ....     0
   Startup error        DIISStart       ....  0.200000
   # of expansion vecs  DIISMaxEq       ....     5
   Bias factor          DIISBfac        ....   1.050
   Max. coefficient     DIISMaxC        ....  10.000
 Newton-Raphson         CNVNR           .... off
 SOSCF                  CNVSOSCF        .... off
 Level Shifting         CNVShift        .... off
 Zerner damping         CNVZerner       .... off
 Static damping         CNVDamp         .... off
 Fernandez-Rico         CNVRico         .... off

SCF Procedure:
 Maximum # iterations   MaxIter         ....   999
 SCF integral mode      SCFMode         .... Direct
   Integral package                     .... LIBINT
 Reset frequeny         DirectResetFreq ....    20
 Integral Threshold     Thresh          ....  1.000e-10 Eh
 Primitive CutOff       TCut            ....  1.000e-11 Eh

Convergence Tolerance:
 Convergence Check Mode ConvCheckMode   .... All-Criteria
 Convergence forced     ConvForced      .... 0
 Energy Change          TolE            ....  1.000e-06 Eh
 Max Density Change     TolMaxP         ....  1.000e-05
 RMS Density Change     TolRMSP         ....  1.000e-06
 DIIS Error             TolErr          ....  1.000e-06


Diagonalization of the overlap matrix:
Smallest eigenvalue                        ... 1.197e-03
Time for diagonalization                   ...    0.003 sec
Threshold for overlap eigenvalues          ... 1.000e-08
Number of eigenvalues below threshold      ... 0
Time for construction of square roots      ...    0.006 sec
Total time needed                          ...    0.008 sec

-------------------
DFT GRID GENERATION
-------------------

General Integration Accuracy     IntAcc      ...  4.340
Radial Grid Type                 RadialGrid  ... Gauss-Chebyshev
Angular Grid (max. acc.)         AngularGrid ... Lebedev-110
Angular grid pruning method      GridPruning ... 3 (G Style)
Weight generation scheme         WeightScheme... Becke
Basis function cutoff            BFCut       ...    1.0000e-10
Integration weight cutoff        WCut        ...    1.0000e-14
Grids for H and He will be reduced by one unit

# of grid points (after initial pruning)     ...  14700 (   0.0 sec)
# of grid points (after weights+screening)   ...  13818 (   0.0 sec)
nearest neighbour list constructed           ...    0.0 sec
Grid point re-assignment to atoms done       ...    0.0 sec
Grid point division into batches done        ...    0.0 sec
Reduced shell lists constructed in    0.2 sec

Total number of grid points                  ...    13818
Total number of batches                      ...      222
Average number of points per batch           ...       62
Average number of grid points per atom       ...     1152
Average number of shells per batch           ...    36.42 (75.87%)
Average number of basis functions per batch  ...    75.58 (78.73%)
Average number of large shells per batch     ...    29.82 (81.87%)
Average number of large basis fcns per batch ...    61.66 (81.58%)
Maximum spatial batch extension              ...  18.04, 20.35, 25.60 au
Average spatial batch extension              ...   3.72,  4.05,  5.16 au

Time for grid setup =    0.257 sec

------------------------------
INITIAL GUESS: MODEL POTENTIAL
------------------------------
Loading Hartree-Fock densities                     ... done
Calculating cut-offs                               ... done
Setting up the integral package                    ... done
Initializing the effective Hamiltonian             ... done
Starting the Coulomb interaction                   ... done (   0.1 sec)
Reading the grid                                   ... done
Mapping shells                                     ... done
Starting the XC term evaluation                    ... done (   0.2 sec)
  promolecular density results
     # of electrons  =     42.001447215
     EX              =    -32.221230177
     EC              =     -1.335919693
     EX+EC           =    -33.557149869
Transforming the Hamiltonian                       ... done (   0.0 sec)
Diagonalizing the Hamiltonian                      ... done (   0.0 sec)
Back transforming the eigenvectors                 ... done (   0.0 sec)
Now organizing SCF variables                       ... done
                      ------------------
                      INITIAL GUESS DONE (   0.7 sec)
                      ------------------
--------------
SCF ITERATIONS
--------------
ITER       Energy         Delta-E        Max-DP      RMS-DP      [F,P]   Gradient Norm
               ***  Starting incremental Fock matrix formation  ***
                             ****Resetting KDIIS****
                             ****Turning on KDIIS(Cayley)****
  0   -232.0213881383   0.000000000000 0.01032387  0.00066073  0.0621413   0.052538791
  1   -232.0409481880  -0.019560049752 0.01094410  0.00080368  0.0536725   0.044878486
  2   -232.0594254021  -0.018477214091 0.01773263  0.00133860  0.0433481   0.036324407
  3   -232.0815356494  -0.022110247354 0.02643250  0.00202018  0.0262874   0.022065985
  4   -232.0943868609  -0.012851211407 0.00092577  0.00007669  0.0005034   0.000416231
  5   -232.0943927456  -0.000005884706 0.00017162  0.00001715  0.0000821   0.000077019
                          ***Energy convergence achieved***
  6   -232.0943928284  -0.000000082882 0.00007805  0.00000497  0.0000652   0.000065652

            ***Energy convergence in two consecutive cycles with***
                    ***'reasonable' density convergence***
                       *** signaling convergence ***

                    *** KDIIS BlockDiag ( 0.002 sec) ***

               *****************************************************
               *                     SUCCESS                       *
               *           SCF CONVERGED AFTER   7 CYCLES          *
               *****************************************************

Setting up the final grid:

General Integration Accuracy     IntAcc      ...  4.670
Radial Grid Type                 RadialGrid  ... Gauss-Chebyshev
Angular Grid (max. acc.)         AngularGrid ... Lebedev-302
Angular grid pruning method      GridPruning ... 3 (G Style)
Weight generation scheme         WeightScheme... Becke
Basis function cutoff            BFCut       ...    1.0000e-10
Integration weight cutoff        WCut        ...    1.0000e-14
Grids for H and He will be reduced by one unit

# of grid points (after initial pruning)     ...  57636 (   0.0 sec)
# of grid points (after weights+screening)   ...  53690 (   0.1 sec)
nearest neighbour list constructed           ...    0.0 sec
Grid point re-assignment to atoms done       ...    0.0 sec
Grid point division into batches done        ...    0.2 sec
Reduced shell lists constructed in    0.8 sec

Total number of grid points                  ...    53690
Total number of batches                      ...      844
Average number of points per batch           ...       63
Average number of grid points per atom       ...     4474
Average number of shells per batch           ...    32.98 (68.71%)
Average number of basis functions per batch  ...    68.03 (70.87%)
Average number of large shells per batch     ...    26.34 (79.87%)
Average number of large basis fcns per batch ...    54.16 (79.61%)
Maximum spatial batch extension              ...  15.47, 17.61, 22.11 au
Average spatial batch extension              ...   2.53,  2.63,  3.01 au

Final grid set up in    0.9 sec
Final integration                            ... done (   0.9 sec)
Change in XC energy                          ...    -0.000051265
Integrated number of electrons               ...    41.999967536
Previous integrated no of electrons          ...    42.000854158

----------------
TOTAL SCF ENERGY
----------------

Total Energy       :         -232.09444420 Eh           -6315.61091 eV

Components:
Nuclear Repulsion  :          189.46726323 Eh            5155.66634 eV
Electronic Energy  :         -421.56170743 Eh          -11471.27725 eV
One Electron Energy:         -686.40944725 Eh          -18678.15064 eV
Two Electron Energy:          264.84773982 Eh            7206.87339 eV

Virial components:
Potential Energy   :         -461.26848832 Eh          -12551.75369 eV
Kinetic Energy     :          229.17404412 Eh            6236.14278 eV
Virial Ratio       :            2.01274315


DFT components:
N(Alpha)           :       20.999983768131 electrons
N(Beta)            :       20.999983768131 electrons
N(Total)           :       41.999967536262 electrons
E(XC)              :      -23.474249673101 Eh       

---------------
SCF CONVERGENCE
---------------

  Last Energy change         ...   -1.0298e-07  Tolerance :   1.0000e-06
  Last MAX-Density change    ...    3.4881e-05  Tolerance :   1.0000e-05
  Last RMS-Density change    ...    2.1578e-06  Tolerance :   1.0000e-06
  Last DIIS Error            ...    1.4688e-05  Tolerance :   1.0000e-06

             **** THE GBW FILE WAS UPDATED (Scan_12.gbw) ****
             **** DENSITY FILE WAS UPDATED (Scan_12.scfp.tmp) ****
             **** ENERGY FILE WAS UPDATED (Scan_12.en.tmp) ****
----------------
ORBITAL ENERGIES
----------------

  NO   OCC          E(Eh)            E(eV) 
   0   2.0000     -10.314355      -280.6679 
   1   2.0000     -10.314352      -280.6678 
   2   2.0000     -10.314238      -280.6647 
   3   2.0000     -10.314131      -280.6618 
   4   2.0000     -10.314056      -280.6597 
   5   2.0000     -10.314022      -280.6588 
   6   2.0000      -0.912849       -24.8399 
   7   2.0000      -0.830436       -22.5973 
   8   2.0000      -0.830388       -22.5960 
   9   2.0000      -0.700349       -19.0575 
  10   2.0000      -0.700314       -19.0565 
  11   2.0000      -0.598641       -16.2898 
  12   2.0000      -0.592727       -16.1289 
  13   2.0000      -0.506963       -13.7952 
  14   2.0000      -0.506843       -13.7919 
  15   2.0000      -0.502875       -13.6839 
  16   2.0000      -0.434790       -11.8312 
  17   2.0000      -0.434751       -11.8302 
  18   2.0000      -0.424877       -11.5615 
  19   2.0000      -0.314100        -8.5471 
  20   2.0000      -0.313961        -8.5433 
  21   0.0000       0.055747         1.5170 
  22   0.0000       0.055858         1.5200 
  23   0.0000       0.194063         5.2807 
  24   0.0000       0.203450         5.5362 
  25   0.0000       0.244819         6.6619 
  26   0.0000       0.245223         6.6728 
  27   0.0000       0.246686         6.7127 
  28   0.0000       0.247162         6.7256 
  29   0.0000       0.262324         7.1382 
  30   0.0000       0.340957         9.2779 
  31   0.0000       0.341257         9.2861 
  32   0.0000       0.352792         9.6000 
  33   0.0000       0.353055         9.6071 
  34   0.0000       0.516373        14.0512 
  35   0.0000       0.548827        14.9343 
  36   0.0000       0.604420        16.4471 
  37   0.0000       0.606362        16.5000 
  38   0.0000       0.636679        17.3249 
  39   0.0000       0.663092        18.0437 
  40   0.0000       0.664059        18.0700 
  41   0.0000       0.701378        19.0855 
  42   0.0000       0.711803        19.3691 
  43   0.0000       0.711820        19.3696 
  44   0.0000       0.711845        19.3703 
  45   0.0000       0.712244        19.3812 
  46   0.0000       0.760985        20.7075 
  47   0.0000       0.761657        20.7258 
  48   0.0000       0.832166        22.6444 
  49   0.0000       0.935694        25.4615 
  50   0.0000       0.972853        26.4727 
  51   0.0000       0.973477        26.4897 
  52   0.0000       0.993896        27.0453 
  53   0.0000       1.000265        27.2186 
  54   0.0000       1.000914        27.2363 
  55   0.0000       1.019931        27.7537 
  56   0.0000       1.020018        27.7561 
  57   0.0000       1.063656        28.9436 
  58   0.0000       1.147154        31.2156 
  59   0.0000       1.147464        31.2241 
  60   0.0000       1.171523        31.8788 
  61   0.0000       1.172285        31.8995 
  62   0.0000       1.225636        33.3512 
  63   0.0000       1.372697        37.3530 
  64   0.0000       1.489118        40.5210 
  65   0.0000       1.489338        40.5269 
  66   0.0000       1.535200        41.7749 
  67   0.0000       1.560844        42.4727 
  68   0.0000       1.561696        42.4959 
  69   0.0000       1.604991        43.6740 
  70   0.0000       1.605292        43.6822 
  71   0.0000       1.779165        48.4135 
  72   0.0000       1.782290        48.4986 
  73   0.0000       1.886893        51.3450 
  74   0.0000       1.990585        54.1666 
  75   0.0000       1.991254        54.1848 
  76   0.0000       2.005572        54.5744 
  77   0.0000       2.061089        56.0851 
  78   0.0000       2.061671        56.1009 
  79   0.0000       2.089795        56.8662 
  80   0.0000       2.090601        56.8881 
  81   0.0000       2.156727        58.6875 
  82   0.0000       2.156957        58.6938 
  83   0.0000       2.261761        61.5456 
  84   0.0000       2.287015        62.2329 
  85   0.0000       2.287563        62.2478 
  86   0.0000       2.527336        68.7723 
  87   0.0000       2.569592        69.9221 
  88   0.0000       2.570019        69.9338 
  89   0.0000       2.638569        71.7991 
  90   0.0000       2.638837        71.8064 
  91   0.0000       2.701864        73.5215 
  92   0.0000       2.702774        73.5462 
  93   0.0000       2.783058        75.7309 
  94   0.0000       2.973110        80.9024 
  95   0.0000       3.206516        87.2537 

                    ********************************
                    * MULLIKEN POPULATION ANALYSIS *
                    ********************************

-----------------------
MULLIKEN ATOMIC CHARGES
-----------------------
   0 C :   -0.179093
   1 H :    0.178187
   2 C :   -0.177300
   3 H :    0.177663
   4 C :   -0.176069
   5 H :    0.176613
   6 C :   -0.179093
   7 H :    0.178187
   8 C :   -0.177300
   9 H :    0.177663
  10 C :   -0.176069
  11 H :    0.176613
Sum of atomic charges:   -0.0000000

--------------------------------
MULLIKEN REDUCED ORBITAL CHARGES
--------------------------------
  0 C s       :     3.242976  s :     3.242976
      pz      :     0.994057  p :     2.906697
      px      :     1.003584
      py      :     0.909056
      dz2     :     0.003214  d :     0.029420
      dxz     :     0.001132
      dyz     :     0.004519
      dx2y2   :     0.012864
      dxy     :     0.007691
  1 H s       :     0.821813  s :     0.821813
  2 C s       :     3.243872  s :     3.243872
      pz      :     0.994597  p :     2.904031
      px      :     0.936957
      py      :     0.972477
      dz2     :     0.003205  d :     0.029397
      dxz     :     0.003450
      dyz     :     0.002199
      dx2y2   :     0.008298
      dxy     :     0.012245
  3 H s       :     0.822337  s :     0.822337
  4 C s       :     3.243886  s :     3.243886
      pz      :     0.994385  p :     2.902794
      px      :     0.924314
      py      :     0.984096
      dz2     :     0.003206  d :     0.029389
      dxz     :     0.003908
      dyz     :     0.001753
      dx2y2   :     0.009670
      dxy     :     0.010852
  5 H s       :     0.823387  s :     0.823387
  6 C s       :     3.242976  s :     3.242976
      pz      :     0.994057  p :     2.906697
      px      :     1.003584
      py      :     0.909056
      dz2     :     0.003214  d :     0.029420
      dxz     :     0.001132
      dyz     :     0.004519
      dx2y2   :     0.012864
      dxy     :     0.007691
  7 H s       :     0.821813  s :     0.821813
  8 C s       :     3.243872  s :     3.243872
      pz      :     0.994597  p :     2.904031
      px      :     0.936957
      py      :     0.972477
      dz2     :     0.003205  d :     0.029397
      dxz     :     0.003450
      dyz     :     0.002199
      dx2y2   :     0.008298
      dxy     :     0.012245
  9 H s       :     0.822337  s :     0.822337
 10 C s       :     3.243886  s :     3.243886
      pz      :     0.994385  p :     2.902794
      px      :     0.924314
      py      :     0.984096
      dz2     :     0.003206  d :     0.029389
      dxz     :     0.003908
      dyz     :     0.001753
      dx2y2   :     0.009670
      dxy     :     0.010852
 11 H s       :     0.823387  s :     0.823387


                     *******************************
                     * LOEWDIN POPULATION ANALYSIS *
                     *******************************

----------------------
LOEWDIN ATOMIC CHARGES
----------------------
   0 C :   -0.142918
   1 H :    0.142767
   2 C :   -0.142957
   3 H :    0.142916
   4 C :   -0.142742
   5 H :    0.142933
   6 C :   -0.142918
   7 H :    0.142767
   8 C :   -0.142957
   9 H :    0.142916
  10 C :   -0.142742
  11 H :    0.142933

-------------------------------
LOEWDIN REDUCED ORBITAL CHARGES
-------------------------------
  0 C s       :     2.977275  s :     2.977275
      pz      :     0.989210  p :     3.103721
      px      :     1.078846
      py      :     1.035664
      dz2     :     0.004668  d :     0.061922
      dxz     :     0.001942
      dyz     :     0.008617
      dx2y2   :     0.026970
      dxy     :     0.019724
  1 H s       :     0.857233  s :     0.857233
  2 C s       :     2.977374  s :     2.977374
      pz      :     0.989670  p :     3.103648
      px      :     1.048965
      py      :     1.065014
      dz2     :     0.004659  d :     0.061935
      dxz     :     0.006506
      dyz     :     0.004050
      dx2y2   :     0.020596
      dxy     :     0.026124
  3 H s       :     0.857084  s :     0.857084
  4 C s       :     2.977359  s :     2.977359
      pz      :     0.989439  p :     3.103465
      px      :     1.043356
      py      :     1.070671
      dz2     :     0.004657  d :     0.061918
      dxz     :     0.007401
      dyz     :     0.003164
      dx2y2   :     0.022528
      dxy     :     0.024168
  5 H s       :     0.857067  s :     0.857067
  6 C s       :     2.977275  s :     2.977275
      pz      :     0.989210  p :     3.103721
      px      :     1.078846
      py      :     1.035664
      dz2     :     0.004668  d :     0.061922
      dxz     :     0.001942
      dyz     :     0.008617
      dx2y2   :     0.026971
      dxy     :     0.019724
  7 H s       :     0.857233  s :     0.857233
  8 C s       :     2.977374  s :     2.977374
      pz      :     0.989670  p :     3.103648
      px      :     1.048965
      py      :     1.065014
      dz2     :     0.004659  d :     0.061935
      dxz     :     0.006506
      dyz     :     0.004050
      dx2y2   :     0.020596
      dxy     :     0.026124
  9 H s       :     0.857084  s :     0.857084
 10 C s       :     2.977359  s :     2.977359
      pz      :     0.989438  p :     3.103465
      px      :     1.043356
      py      :     1.070671
      dz2     :     0.004657  d :     0.061918
      dxz     :     0.007401
      dyz     :     0.003164
      dx2y2   :     0.022528
      dxy     :     0.024168
 11 H s       :     0.857067  s :     0.857067


                      *****************************
                      * MAYER POPULATION ANALYSIS *
                      *****************************

  NA   - Mulliken gross atomic population
  ZA   - Total nuclear charge
  QA   - Mulliken gross atomic charge
  VA   - Mayer's total valence
  BVA  - Mayer's bonded valence
  FA   - Mayer's free valence

  ATOM       NA         ZA         QA         VA         BVA        FA
  0 C      6.1791     6.0000    -0.1791     3.9030     3.9030     0.0000
  1 H      0.8218     1.0000     0.1782     0.9313     0.9313    -0.0000
  2 C      6.1773     6.0000    -0.1773     3.9020     3.9020    -0.0000
  3 H      0.8223     1.0000     0.1777     0.9315     0.9315     0.0000
  4 C      6.1761     6.0000    -0.1761     3.9030     3.9030    -0.0000
  5 H      0.8234     1.0000     0.1766     0.9319     0.9319    -0.0000
  6 C      6.1791     6.0000    -0.1791     3.9030     3.9030    -0.0000
  7 H      0.8218     1.0000     0.1782     0.9313     0.9313     0.0000
  8 C      6.1773     6.0000    -0.1773     3.9020     3.9020     0.0000
  9 H      0.8223     1.0000     0.1777     0.9315     0.9315    -0.0000
 10 C      6.1761     6.0000    -0.1761     3.9030     3.9030     0.0000
 11 H      0.8234     1.0000     0.1766     0.9319     0.9319     0.0000

  Mayer bond orders larger than 0.1
B(  0-C ,  1-H ) :   0.9287 B(  0-C ,  2-C ) :   1.4303 B(  0-C ,  6-C ) :   0.1041 
B(  0-C , 10-C ) :   1.4310 B(  2-C ,  3-H ) :   0.9289 B(  2-C ,  4-C ) :   1.4303 
B(  2-C ,  8-C ) :   0.1038 B(  4-C ,  5-H ) :   0.9292 B(  4-C ,  6-C ) :   1.4310 
B(  4-C , 10-C ) :   0.1038 B(  6-C ,  7-H ) :   0.9287 B(  6-C ,  8-C ) :   1.4303 
B(  8-C ,  9-H ) :   0.9289 B(  8-C , 10-C ) :   1.4303 B( 10-C , 11-H ) :   0.9292 


-------
TIMINGS
-------

Total SCF time: 0 days 0 hours 0 min 34 sec 

Total time                  ....      34.034 sec
Sum of individual times     ....      33.877 sec  ( 99.5%)

Fock matrix formation       ....      32.222 sec  ( 94.7%)
  XC integration            ....       2.833 sec  (  8.8% of F)
    Basis function eval.    ....       1.415 sec  ( 50.0% of XC)
    Density eval.           ....       0.236 sec  (  8.3% of XC)
    XC-Functional eval.     ....       0.503 sec  ( 17.8% of XC)
    XC-Potential eval.      ....       0.374 sec  ( 13.2% of XC)
Diagonalization             ....       0.023 sec  (  0.1%)
Density matrix formation    ....       0.001 sec  (  0.0%)
Population analysis         ....       0.015 sec  (  0.0%)
Initial guess               ....       0.428 sec  (  1.3%)
Orbital Transformation      ....       0.000 sec  (  0.0%)
Orbital Orthonormalization  ....       0.000 sec  (  0.0%)
DIIS solution               ....       0.000 sec  (  0.0%)
Grid generation             ....       1.187 sec  (  3.5%)


-------------------------------------------------------------------------------
                          DFT DISPERSION CORRECTION                            
                                                                               
                              DFTD3 V3.1  Rev 1                                
                              USING zero damping                               
-------------------------------------------------------------------------------
The omegaB97X-D3 functional is recognized. Fit by Chai et al.
Active option DFTDOPT                   ...         3   

molecular C6(AA) [au] = 1672.626224 


            DFT-D V3
 parameters
 s6 scaling factor         :     1.0000 
 rs6 scaling factor        :     1.2810 
 s8 scaling factor         :     1.0000 
 rs8 scaling factor        :     1.0940 
 Damping factor alpha6     :    14.0000 
 Damping factor alpha8     :    16.0000 
 ad hoc parameters k1-k3   :    16.0000     1.3333    -4.0000 

 Edisp/kcal,au: -1.357000106618  -0.002162517090 
 E6   /kcal   :  -0.616555394 
 E8   /kcal   :  -0.740444713 
 % E8         :  54.564823487 

-------------------------   ----------------
Dispersion correction           -0.002162517
-------------------------   ----------------


-------------------------   --------------------
FINAL SINGLE POINT ENERGY      -232.096606713484
-------------------------   --------------------


                            ***************************************
                            *     ORCA property calculations      *
                            ***************************************

                                    ---------------------
                                    Active property flags
                                    ---------------------
   (+) Dipole Moment


------------------------------------------------------------------------------
                       ORCA ELECTRIC PROPERTIES CALCULATION
------------------------------------------------------------------------------

Dipole Moment Calculation                       ... on
Quadrupole Moment Calculation                   ... off
Polarizability Calculation                      ... off
GBWName                                         ... Scan_12.gbw
Electron density file                           ... Scan_12.scfp.tmp

-------------
DIPOLE MOMENT
-------------
                                X             Y             Z
Electronic contribution:      0.00000       0.00000       0.00000
Nuclear contribution   :     -0.00000      -0.00000      -0.00000
                        -----------------------------------------
Total Dipole Moment    :     -0.00000      -0.00000       0.00000
                        -----------------------------------------
Magnitude (a.u.)       :      0.00000
Magnitude (Debye)      :      0.00000


Timings for individual modules:

Sum of individual times         ...       34.498 sec (=   0.575 min)
GTO integral calculation        ...        0.440 sec (=   0.007 min)   1.3 %
SCF iterations                  ...       34.058 sec (=   0.568 min)  98.7 %
                             ****ORCA TERMINATED NORMALLY****
TOTAL RUN TIME: 0 days 0 hours 0 minutes 34 seconds 925 msec
