
                                 *****************
                                 * O   R   C   A *
                                 *****************

           --- An Ab Initio, DFT and Semiempirical electronic structure package ---

                  #######################################################
                  #                        -***-                        #
                  #  Department of molecular theory and spectroscopy    #
                  #              Directorship: Frank Neese              #
                  # Max Planck Institute for Chemical Energy Conversion #
                  #                  D-45470 Muelheim/Ruhr              #
                  #                       Germany                       #
                  #                                                     #
                  #                  All rights reserved                #
                  #                        -***-                        #
                  #######################################################


                         Program Version 4.0.0.2 - RELEASE -


 With contributions from (in alphabetic order):
   Daniel Aravena         : Magnetic Properties
   Michael Atanasov       : Ab Initio Ligand Field Theory
   Ute Becker             : Parallelization
   Martin Brehm           : Molecular dynamics
   Dmytro Bykov           : SCF Hessian
   Vijay G. Chilkuri      : MRCI spin determinant printing
   Dipayan Datta          : RHF DLPNO-CCSD density
   Achintya Kumar Dutta   : EOM-CC, STEOM-CC
   Dmitry Ganyushin       : Spin-Orbit,Spin-Spin,Magnetic field MRCI
   Yang Guo               : DLPNO-NEVPT2, CIM, IAO-localization
   Andreas Hansen         : Spin unrestricted coupled pair/coupled cluster methods
   Lee Huntington         : MR-EOM, pCC
   Robert Izsak           : Overlap fitted RIJCOSX, COSX-SCS-MP3, EOM
   Christian Kollmar      : KDIIS, OOCD, Brueckner-CCSD(T), CCSD density
   Simone Kossmann        : Meta GGA functionals, TD-DFT gradient, OOMP2, MP2 Hessian
   Martin Krupicka        : AUTO-CI
   Dagmar Lenk            : GEPOL surface
   Dimitrios Liakos       : Extrapolation schemes; parallel MDCI
   Dimitrios Manganas     : ROCIS; embedding schemes
   Dimitrios Pantazis     : SARC Basis sets
   Taras Petrenko         : DFT Hessian,TD-DFT gradient, ASA, ECA, R-Raman, ABS, FL, XAS/XES, NRVS
   Peter Pinski           : DLPNO-MP2
   Christoph Reimann      : Effective Core Potentials
   Marius Retegan         : Local ZFS, SOC
   Christoph Riplinger    : Optimizer, TS searches, QM/MM, DLPNO-CCSD(T), (RO)-DLPNO pert. Triples
   Tobias Risthaus        : Range-separated hybrids, TD-DFT gradient, RPA, STAB
   Michael Roemelt        : Restricted open shell CIS
   Masaaki Saitow         : Open-shell DLPNO
   Barbara Sandhoefer     : DKH picture change effects
   Kantharuban Sivalingam : CASSCF convergence, NEVPT2, FIC-MRCI
   Georgi Stoychev        : AutoAux
   Boris Wezisla          : Elementary symmetry handling
   Frank Wennmohs         : Technical directorship


 We gratefully acknowledge several colleagues who have allowed us to
 interface, adapt or use parts of their codes:
   Stefan Grimme, W. Hujo, H. Kruse,             : VdW corrections, initial TS optimization,
                  C. Bannwarth                     DFT functionals, gCP, sTDA/sTD-DF
   Ed Valeev                                     : LibInt (2-el integral package), F12 methods
   Garnet Chan, S. Sharma, J. Yang, R. Olivares  : DMRG
   Ulf Ekstrom                                   : XCFun DFT Library
   Mihaly Kallay                                 : mrcc  (arbitrary order and MRCC methods)
   Jiri Pittner, Ondrej Demel                    : Mk-CCSD
   Frank Weinhold                                : gennbo (NPA and NBO analysis)
   Christopher J. Cramer and Donald G. Truhlar   : smd solvation model


 Your calculation uses the libint2 library for the computation of 2-el integrals
 For citations please refer to: http://libint.valeyev.net

 This ORCA versions uses:
   CBLAS   interface :  Fast vector & matrix operations
   LAPACKE interface :  Fast linear algebra routines
   SCALAPACK package :  Parallel linear algebra routines


Your calculation utilizes the atom-pairwise dispersion correction
with the zero-damping scheme (D30)
Cite in your paper:
S.Grimme, J.Antony, S.Ehrlich and H.Krieg, J.Chem.Phys., 132, (2010), 154104 
   

XCFun DFT library Copyright 2009-2010 Ulf Ekstrom and contributors.
See http://admol.org/xcfun for more information. This is free soft-
ware; see the source code for copying conditions. There is ABSOLUTELY
NO WARRANTY; not even for MERCHANTABILITY or FITNESS FOR A PARTICULAR
PURPOSE. For details see the documentation. Scientific users of this 
library should cite U. Ekstrom, L. Visscher, R. Bast, A. J. Thorvald-
sen and K. Ruud; J.Chem.Theor.Comp. 2010, DOI: 10.1021/ct100117s
XCFun Version 0.99 
Your calculation utilizes the basis: 6-31G(d)
   H-He, Li-Ne : W. J. Hehre, R. Ditchfield and J.A. Pople, J. Chem. Phys. 56, 2257 (1972).
                 Note: He and Ne are unpublished basis sets taken from the Gaussian program.
                 Note: Li and B from J. D. Dill and J. A. Pople, J. Chem. Phys. 62, 2921 (1975).
   Na - Ar     : M. M. Francl, W. J. Pietro, W. J. Hehre, J. S. Binkley, M. S. Gordon, 
                 D. J. DeFrees and J. A. Pople, J. Chem. Phys. 77, 3654 (1982).
   K - Zn      : V. A. Rassolov, J. A. Pople, M. A. Ratner, and T. L. Windus, J. Chem. Phys. 109, 1223 (1998).

================================================================================
                                        WARNINGS
                       Please study these warnings very carefully!
================================================================================

Warning: TCutStore was < 0. Adjusted to Thresh (uncritical)

INFO   : the flag for use of LIBINT has been found!

================================================================================
                                       INPUT FILE
================================================================================
NAME = initial13.inp
|  1> ! WB97X-D3 6-31G(d) VerySlowConv
|  2> ! KDIIS NOSOSCF
|  3> %base "Scan_13"
|  4> 
|  5> %scf
|  6> maxiter 999
|  7> end
|  8> 
|  9> * xyz 0 1
| 10> C          1.719638533106   -2.864714189311   -0.000834541651
| 11> H          2.784847292270   -2.946262490098   -0.000083528385
| 12> C          1.030160394998   -1.427095224282    0.000833041739
| 13> H          1.633387866340   -0.545371140090    0.000067115391
| 14> C         -0.559592967864   -1.305388849669   -0.000828779828
| 15> H         -1.021574641869   -0.342116867665   -0.000054666106
| 16> C         -1.459869139468   -2.621303756379    0.000826748252
| 17> H         -2.525078305542   -2.539755659124    0.000058051772
| 18> C         -0.770393100887   -4.058924446453   -0.000828663535
| 19> H         -1.373620121092   -4.940648279688   -0.000074220746
| 20> C          0.819361209912   -4.180628449665    0.000832556537
| 21> H          1.281342980097   -5.143900647578    0.000086886560
| 22> **                         ****END OF INPUT****
================================================================================

                       ****************************
                       * Single Point Calculation *
                       ****************************

---------------------------------
CARTESIAN COORDINATES (ANGSTROEM)
---------------------------------
  C      1.719639   -2.864714   -0.000835
  H      2.784847   -2.946262   -0.000084
  C      1.030160   -1.427095    0.000833
  H      1.633388   -0.545371    0.000067
  C     -0.559593   -1.305389   -0.000829
  H     -1.021575   -0.342117   -0.000055
  C     -1.459869   -2.621304    0.000827
  H     -2.525078   -2.539756    0.000058
  C     -0.770393   -4.058924   -0.000829
  H     -1.373620   -4.940648   -0.000074
  C      0.819361   -4.180628    0.000833
  H      1.281343   -5.143901    0.000087

----------------------------
CARTESIAN COORDINATES (A.U.)
----------------------------
  NO LB      ZA    FRAG     MASS         X           Y           Z
   0 C     6.0000    0    12.011    3.249646   -5.413525   -0.001577
   1 H     1.0000    0     1.008    5.262599   -5.567629   -0.000158
   2 C     6.0000    0    12.011    1.946721   -2.696819    0.001574
   3 H     1.0000    0     1.008    3.086656   -1.030602    0.000127
   4 C     6.0000    0    12.011   -1.057477   -2.466827   -0.001566
   5 H     1.0000    0     1.008   -1.930496   -0.646507   -0.000103
   6 C     6.0000    0    12.011   -2.758753   -4.953546    0.001562
   7 H     1.0000    0     1.008   -4.771706   -4.799443    0.000110
   8 C     6.0000    0    12.011   -1.455832   -7.670256   -0.001566
   9 H     1.0000    0     1.008   -2.595766   -9.336472   -0.000140
  10 C     6.0000    0    12.011    1.548368   -7.900243    0.001573
  11 H     1.0000    0     1.008    2.421387   -9.720563    0.000164

--------------------------------
INTERNAL COORDINATES (ANGSTROEM)
--------------------------------
 C      0   0   0     0.000000000000     0.00000000     0.00000000
 H      1   0   0     1.068325975525     0.00000000     0.00000000
 C      1   2   0     1.594406213101   119.99998046     0.00000000
 H      3   1   2     1.068326415226   119.99987172     0.16313707
 C      3   1   2     1.594406145875   119.99998119   179.97755198
 H      5   3   1     1.068326063373   119.99996712   180.02125656
 C      5   3   1     1.594406462491   119.99982709     0.20684831
 H      7   5   3     1.068326378289   119.99990522   179.97864724
 C      7   5   3     1.594406847920   119.99996399   359.79365682
 H      9   7   5     1.068325945198   119.99998054   180.02197444
 C      1   2   3     1.594406591330   119.99994088   180.18488059
 H     11   1   2     1.068326279411   119.99990043   359.83813753

---------------------------
INTERNAL COORDINATES (A.U.)
---------------------------
 C      0   0   0     0.000000000000     0.00000000     0.00000000
 H      1   0   0     2.018843515497     0.00000000     0.00000000
 C      1   2   0     3.012991088983   119.99998046     0.00000000
 H      3   1   2     2.018844346410   119.99987172     0.16313707
 C      3   1   2     3.012990961944   119.99998119   179.97755198
 H      5   3   1     2.018843681506   119.99996712   180.02125656
 C      5   3   1     3.012991560262   119.99982709     0.20684831
 H      7   5   3     2.018844276610   119.99990522   179.97864724
 C      7   5   3     3.012992288618   119.99996399   359.79365682
 H      9   7   5     2.018843458187   119.99998054   180.02197444
 C      1   2   3     3.012991803733   119.99994088   180.18488059
 H     11   1   2     2.018844089757   119.99990043   359.83813753

---------------------
BASIS SET INFORMATION
---------------------
There are 2 groups of distinct atoms

 Group   1 Type C   : 10s4p1d contracted to 3s2p1d pattern {631/31/1}
 Group   2 Type H   : 4s contracted to 2s pattern {31}

Atom   0C    basis set group =>   1
Atom   1H    basis set group =>   2
Atom   2C    basis set group =>   1
Atom   3H    basis set group =>   2
Atom   4C    basis set group =>   1
Atom   5H    basis set group =>   2
Atom   6C    basis set group =>   1
Atom   7H    basis set group =>   2
Atom   8C    basis set group =>   1
Atom   9H    basis set group =>   2
Atom  10C    basis set group =>   1
Atom  11H    basis set group =>   2
------------------------------------------------------------------------------
                           ORCA GTO INTEGRAL CALCULATION
------------------------------------------------------------------------------

                         BASIS SET STATISTICS AND STARTUP INFO

 # of primitive gaussian shells          ...  114
 # of primitive gaussian functions       ...  186
 # of contracted shells                  ...   48
 # of contracted basis functions         ...   96
 Highest angular momentum                ...    2
 Maximum contraction depth               ...    6
 Integral package used                   ... LIBINT
 Integral threshhold            Thresh   ...  1.000e-10
 Primitive cut-off              TCut     ...  1.000e-11


------------------------------ INTEGRAL EVALUATION ----------------------------


 * One electron integrals 
 Pre-screening matrix                    ... done
 Shell pair data                         ... done (   0.001 sec)

-------------------------------------------------------------------------------
                                 ORCA SCF
-------------------------------------------------------------------------------

------------
SCF SETTINGS
------------
Hamiltonian:
 Density Functional     Method          .... DFT(GTOs)
 Exchange Functional    Exchange        .... WB97X-D3
 Correlation Functional Correlation     .... WB97X-D3
 Gradients option       PostSCFGGA      .... off
 Hybrid DFT is turned on
   Fraction HF Exchange ScalHFX         ....  0.195728
   Scaling of DF-GGA-X  ScalDFX         ....  0.000000
   Scaling of DF-GGA-C  ScalDFC         ....  1.000000
   Scaling of DF-LDA-C  ScalLDAC        ....  1.000000
   Perturbative correction              ....  0.000000
 Long-range corrected/Screened/Range-Separated Hybrid DFT is turned on
   Amount of maximum screened exact exchange              ....  0.804272
   Range separation parameter mu (erf(mu*r12)/r12)        ....  0.250000


General Settings:
 Integral files         IntName         .... Scan_13
 Hartree-Fock type      HFTyp           .... RHF
 Total Charge           Charge          ....    0
 Multiplicity           Mult            ....    1
 Number of Electrons    NEL             ....   42
 Basis Dimension        Dim             ....   96
 Nuclear Repulsion      ENuc            ....    182.1314504904 Eh

Convergence Acceleration:
 DIIS                   CNVDIIS         .... on
   Start iteration      DIISMaxIt       ....     0
   Startup error        DIISStart       ....  0.200000
   # of expansion vecs  DIISMaxEq       ....     5
   Bias factor          DIISBfac        ....   1.050
   Max. coefficient     DIISMaxC        ....  10.000
 Newton-Raphson         CNVNR           .... off
 SOSCF                  CNVSOSCF        .... off
 Level Shifting         CNVShift        .... off
 Zerner damping         CNVZerner       .... off
 Static damping         CNVDamp         .... off
 Fernandez-Rico         CNVRico         .... off

SCF Procedure:
 Maximum # iterations   MaxIter         ....   999
 SCF integral mode      SCFMode         .... Direct
   Integral package                     .... LIBINT
 Reset frequeny         DirectResetFreq ....    20
 Integral Threshold     Thresh          ....  1.000e-10 Eh
 Primitive CutOff       TCut            ....  1.000e-11 Eh

Convergence Tolerance:
 Convergence Check Mode ConvCheckMode   .... All-Criteria
 Convergence forced     ConvForced      .... 0
 Energy Change          TolE            ....  1.000e-06 Eh
 Max Density Change     TolMaxP         ....  1.000e-05
 RMS Density Change     TolRMSP         ....  1.000e-06
 DIIS Error             TolErr          ....  1.000e-06


Diagonalization of the overlap matrix:
Smallest eigenvalue                        ... 1.879e-03
Time for diagonalization                   ...    0.002 sec
Threshold for overlap eigenvalues          ... 1.000e-08
Number of eigenvalues below threshold      ... 0
Time for construction of square roots      ...    0.005 sec
Total time needed                          ...    0.007 sec

-------------------
DFT GRID GENERATION
-------------------

General Integration Accuracy     IntAcc      ...  4.340
Radial Grid Type                 RadialGrid  ... Gauss-Chebyshev
Angular Grid (max. acc.)         AngularGrid ... Lebedev-110
Angular grid pruning method      GridPruning ... 3 (G Style)
Weight generation scheme         WeightScheme... Becke
Basis function cutoff            BFCut       ...    1.0000e-10
Integration weight cutoff        WCut        ...    1.0000e-14
Grids for H and He will be reduced by one unit

# of grid points (after initial pruning)     ...  14700 (   0.0 sec)
# of grid points (after weights+screening)   ...  13844 (   0.0 sec)
nearest neighbour list constructed           ...    0.0 sec
Grid point re-assignment to atoms done       ...    0.0 sec
Grid point division into batches done        ...    0.0 sec
Reduced shell lists constructed in    0.2 sec

Total number of grid points                  ...    13844
Total number of batches                      ...      224
Average number of points per batch           ...       61
Average number of grid points per atom       ...     1154
Average number of shells per batch           ...    35.86 (74.71%)
Average number of basis functions per batch  ...    74.35 (77.45%)
Average number of large shells per batch     ...    28.96 (80.74%)
Average number of large basis fcns per batch ...    59.74 (80.35%)
Maximum spatial batch extension              ...  18.04, 20.53, 25.60 au
Average spatial batch extension              ...   3.86,  4.19,  5.42 au

Time for grid setup =    0.246 sec

------------------------------
INITIAL GUESS: MODEL POTENTIAL
------------------------------
Loading Hartree-Fock densities                     ... done
Calculating cut-offs                               ... done
Setting up the integral package                    ... done
Initializing the effective Hamiltonian             ... done
Starting the Coulomb interaction                   ... done (   0.1 sec)
Reading the grid                                   ... done
Mapping shells                                     ... done
Starting the XC term evaluation                    ... done (   0.2 sec)
  promolecular density results
     # of electrons  =     42.000383939
     EX              =    -32.121103087
     EC              =     -1.317727294
     EX+EC           =    -33.438830380
Transforming the Hamiltonian                       ... done (   0.0 sec)
Diagonalizing the Hamiltonian                      ... done (   0.0 sec)
Back transforming the eigenvectors                 ... done (   0.0 sec)
Now organizing SCF variables                       ... done
                      ------------------
                      INITIAL GUESS DONE (   0.6 sec)
                      ------------------
--------------
SCF ITERATIONS
--------------
ITER       Energy         Delta-E        Max-DP      RMS-DP      [F,P]   Gradient Norm
               ***  Starting incremental Fock matrix formation  ***
                             ****Resetting KDIIS****
                             ****Turning on KDIIS(Cayley)****
  0   -231.9478087059   0.000000000000 0.00821567  0.00054464  0.0530693   0.045007919
  1   -231.9617333009  -0.013924594970 0.00977425  0.00069874  0.0460123   0.038777273
  2   -231.9757446102  -0.014011309347 0.01591256  0.00117779  0.0371531   0.031334620
  3   -231.9925031348  -0.016758524554 0.02376225  0.00177737  0.0224951   0.018962898
  4   -232.0021330490  -0.009629914276 0.00062208  0.00004675  0.0004118   0.000280566
  5   -232.0021355282  -0.000002479130 0.00022351  0.00002093  0.0001107   0.000096342
                          ***Energy convergence achieved***
  6   -232.0021357361  -0.000000207913 0.00007956  0.00000365  0.0000728   0.000064585

            ***Energy convergence in two consecutive cycles with***
                    ***'reasonable' density convergence***
                       *** signaling convergence ***

                    *** KDIIS BlockDiag ( 0.001 sec) ***

               *****************************************************
               *                     SUCCESS                       *
               *           SCF CONVERGED AFTER   7 CYCLES          *
               *****************************************************

Setting up the final grid:

General Integration Accuracy     IntAcc      ...  4.670
Radial Grid Type                 RadialGrid  ... Gauss-Chebyshev
Angular Grid (max. acc.)         AngularGrid ... Lebedev-302
Angular grid pruning method      GridPruning ... 3 (G Style)
Weight generation scheme         WeightScheme... Becke
Basis function cutoff            BFCut       ...    1.0000e-10
Integration weight cutoff        WCut        ...    1.0000e-14
Grids for H and He will be reduced by one unit

# of grid points (after initial pruning)     ...  57636 (   0.0 sec)
# of grid points (after weights+screening)   ...  53808 (   0.1 sec)
nearest neighbour list constructed           ...    0.0 sec
Grid point re-assignment to atoms done       ...    0.0 sec
Grid point division into batches done        ...    0.2 sec
Reduced shell lists constructed in    0.8 sec

Total number of grid points                  ...    53808
Total number of batches                      ...      846
Average number of points per batch           ...       63
Average number of grid points per atom       ...     4484
Average number of shells per batch           ...    32.44 (67.58%)
Average number of basis functions per batch  ...    66.73 (69.51%)
Average number of large shells per batch     ...    25.51 (78.64%)
Average number of large basis fcns per batch ...    52.33 (78.42%)
Maximum spatial batch extension              ...  18.68, 17.32, 21.84 au
Average spatial batch extension              ...   2.55,  2.67,  3.04 au

Final grid set up in    0.9 sec
Final integration                            ... done (   0.8 sec)
Change in XC energy                          ...    -0.000724710
Integrated number of electrons               ...    41.999958355
Previous integrated no of electrons          ...    42.000035738

----------------
TOTAL SCF ENERGY
----------------

Total Energy       :         -232.00286054 Eh           -6313.11879 eV

Components:
Nuclear Repulsion  :          182.13145049 Eh            4956.04873 eV
Electronic Energy  :         -414.13431103 Eh          -11269.16752 eV
One Electron Energy:         -671.68561675 Eh          -18277.49484 eV
Two Electron Energy:          257.55130572 Eh            7008.32733 eV

Virial components:
Potential Energy   :         -460.55036776 Eh          -12532.21263 eV
Kinetic Energy     :          228.54750722 Eh            6219.09384 eV
Virial Ratio       :            2.01511875


DFT components:
N(Alpha)           :       20.999979177456 electrons
N(Beta)            :       20.999979177456 electrons
N(Total)           :       41.999958354911 electrons
E(XC)              :      -23.333460585079 Eh       

---------------
SCF CONVERGENCE
---------------

  Last Energy change         ...   -9.1403e-08  Tolerance :   1.0000e-06
  Last MAX-Density change    ...    2.2233e-05  Tolerance :   1.0000e-05
  Last RMS-Density change    ...    1.3656e-06  Tolerance :   1.0000e-06
  Last DIIS Error            ...    8.9190e-06  Tolerance :   1.0000e-06

             **** THE GBW FILE WAS UPDATED (Scan_13.gbw) ****
             **** DENSITY FILE WAS UPDATED (Scan_13.scfp.tmp) ****
             **** ENERGY FILE WAS UPDATED (Scan_13.en.tmp) ****
----------------
ORBITAL ENERGIES
----------------

  NO   OCC          E(Eh)            E(eV) 
   0   2.0000     -10.330784      -281.1149 
   1   2.0000     -10.330758      -281.1142 
   2   2.0000     -10.330646      -281.1112 
   3   2.0000     -10.330595      -281.1098 
   4   2.0000     -10.330541      -281.1083 
   5   2.0000     -10.330533      -281.1081 
   6   2.0000      -0.887177       -24.1413 
   7   2.0000      -0.817106       -22.2346 
   8   2.0000      -0.817042       -22.2328 
   9   2.0000      -0.698830       -19.0161 
  10   2.0000      -0.698800       -19.0153 
  11   2.0000      -0.608751       -16.5650 
  12   2.0000      -0.584391       -15.9021 
  13   2.0000      -0.501850       -13.6560 
  14   2.0000      -0.501744       -13.6532 
  15   2.0000      -0.484026       -13.1710 
  16   2.0000      -0.433658       -11.8004 
  17   2.0000      -0.433522       -11.7967 
  18   2.0000      -0.406248       -11.0546 
  19   2.0000      -0.305701        -8.3186 
  20   2.0000      -0.305571        -8.3150 
  21   0.0000       0.041861         1.1391 
  22   0.0000       0.041952         1.1416 
  23   0.0000       0.173713         4.7270 
  24   0.0000       0.198527         5.4022 
  25   0.0000       0.217187         5.9100 
  26   0.0000       0.217568         5.9203 
  27   0.0000       0.239609         6.5201 
  28   0.0000       0.248567         6.7638 
  29   0.0000       0.249004         6.7757 
  30   0.0000       0.303675         8.2634 
  31   0.0000       0.303925         8.2702 
  32   0.0000       0.333998         9.0885 
  33   0.0000       0.334289         9.0965 
  34   0.0000       0.449976        12.2445 
  35   0.0000       0.485213        13.2033 
  36   0.0000       0.582154        15.8412 
  37   0.0000       0.631211        17.1761 
  38   0.0000       0.638626        17.3779 
  39   0.0000       0.649881        17.6842 
  40   0.0000       0.651060        17.7163 
  41   0.0000       0.695180        18.9168 
  42   0.0000       0.695657        18.9298 
  43   0.0000       0.710162        19.3245 
  44   0.0000       0.710486        19.3333 
  45   0.0000       0.710512        19.3340 
  46   0.0000       0.754268        20.5247 
  47   0.0000       0.754845        20.5404 
  48   0.0000       0.824902        22.4467 
  49   0.0000       0.934129        25.4189 
  50   0.0000       0.963822        26.2269 
  51   0.0000       0.981908        26.7191 
  52   0.0000       0.982530        26.7360 
  53   0.0000       0.986138        26.8342 
  54   0.0000       0.986507        26.8442 
  55   0.0000       1.033506        28.1231 
  56   0.0000       1.033785        28.1307 
  57   0.0000       1.066149        29.0114 
  58   0.0000       1.128282        30.7021 
  59   0.0000       1.128747        30.7148 
  60   0.0000       1.136242        30.9187 
  61   0.0000       1.136934        30.9375 
  62   0.0000       1.186946        32.2984 
  63   0.0000       1.398206        38.0471 
  64   0.0000       1.452452        39.5232 
  65   0.0000       1.452603        39.5273 
  66   0.0000       1.563795        42.5530 
  67   0.0000       1.567048        42.6415 
  68   0.0000       1.567856        42.6635 
  69   0.0000       1.613791        43.9135 
  70   0.0000       1.614012        43.9195 
  71   0.0000       1.717465        46.7346 
  72   0.0000       1.725486        46.9529 
  73   0.0000       1.819454        49.5099 
  74   0.0000       1.903640        51.8007 
  75   0.0000       1.904436        51.8224 
  76   0.0000       1.960135        53.3380 
  77   0.0000       1.960541        53.3490 
  78   0.0000       2.040304        55.5195 
  79   0.0000       2.106448        57.3194 
  80   0.0000       2.106682        57.3257 
  81   0.0000       2.107912        57.3592 
  82   0.0000       2.108020        57.3621 
  83   0.0000       2.183057        59.4040 
  84   0.0000       2.221494        60.4499 
  85   0.0000       2.222183        60.4687 
  86   0.0000       2.410716        65.5989 
  87   0.0000       2.499371        68.0114 
  88   0.0000       2.499693        68.0201 
  89   0.0000       2.601666        70.7949 
  90   0.0000       2.601982        70.8035 
  91   0.0000       2.647035        72.0295 
  92   0.0000       2.647141        72.0324 
  93   0.0000       2.715266        73.8861 
  94   0.0000       2.885436        78.5167 
  95   0.0000       3.063648        83.3661 

                    ********************************
                    * MULLIKEN POPULATION ANALYSIS *
                    ********************************

-----------------------
MULLIKEN ATOMIC CHARGES
-----------------------
   0 C :   -0.184838
   1 H :    0.183993
   2 C :   -0.183654
   3 H :    0.183718
   4 C :   -0.181964
   5 H :    0.182746
   6 C :   -0.184838
   7 H :    0.183993
   8 C :   -0.183655
   9 H :    0.183718
  10 C :   -0.181964
  11 H :    0.182745
Sum of atomic charges:   -0.0000000

--------------------------------
MULLIKEN REDUCED ORBITAL CHARGES
--------------------------------
  0 C s       :     3.278455  s :     3.278455
      pz      :     0.995231  p :     2.879870
      px      :     0.989911
      py      :     0.894728
      dz2     :     0.003071  d :     0.026513
      dxz     :     0.000743
      dyz     :     0.003657
      dx2y2   :     0.012238
      dxy     :     0.006804
  1 H s       :     0.816007  s :     0.816007
  2 C s       :     3.279287  s :     3.279287
      pz      :     0.995869  p :     2.877898
      px      :     0.923128
      py      :     0.958901
      dz2     :     0.003065  d :     0.026470
      dxz     :     0.002735
      dyz     :     0.001660
      dx2y2   :     0.007424
      dxy     :     0.011586
  3 H s       :     0.816282  s :     0.816282
  4 C s       :     3.279161  s :     3.279161
      pz      :     0.995694  p :     2.876348
      px      :     0.910146
      py      :     0.970508
      dz2     :     0.003057  d :     0.026455
      dxz     :     0.003129
      dyz     :     0.001278
      dx2y2   :     0.008877
      dxy     :     0.010114
  5 H s       :     0.817254  s :     0.817254
  6 C s       :     3.278455  s :     3.278455
      pz      :     0.995230  p :     2.879869
      px      :     0.989911
      py      :     0.894728
      dz2     :     0.003071  d :     0.026513
      dxz     :     0.000743
      dyz     :     0.003657
      dx2y2   :     0.012238
      dxy     :     0.006804
  7 H s       :     0.816007  s :     0.816007
  8 C s       :     3.279287  s :     3.279287
      pz      :     0.995870  p :     2.877898
      px      :     0.923128
      py      :     0.958900
      dz2     :     0.003065  d :     0.026470
      dxz     :     0.002735
      dyz     :     0.001660
      dx2y2   :     0.007424
      dxy     :     0.011586
  9 H s       :     0.816282  s :     0.816282
 10 C s       :     3.279161  s :     3.279161
      pz      :     0.995693  p :     2.876348
      px      :     0.910146
      py      :     0.970508
      dz2     :     0.003057  d :     0.026455
      dxz     :     0.003129
      dyz     :     0.001278
      dx2y2   :     0.008877
      dxy     :     0.010114
 11 H s       :     0.817255  s :     0.817255


                     *******************************
                     * LOEWDIN POPULATION ANALYSIS *
                     *******************************

----------------------
LOEWDIN ATOMIC CHARGES
----------------------
   0 C :   -0.144999
   1 H :    0.144882
   2 C :   -0.145192
   3 H :    0.145083
   4 C :   -0.144865
   5 H :    0.145091
   6 C :   -0.144998
   7 H :    0.144882
   8 C :   -0.145192
   9 H :    0.145083
  10 C :   -0.144865
  11 H :    0.145091

-------------------------------
LOEWDIN REDUCED ORBITAL CHARGES
-------------------------------
  0 C s       :     3.014662  s :     3.014662
      pz      :     0.991715  p :     3.078021
      px      :     1.072964
      py      :     1.013342
      dz2     :     0.004050  d :     0.052316
      dxz     :     0.001394
      dyz     :     0.006602
      dx2y2   :     0.023776
      dxy     :     0.016494
  1 H s       :     0.855118  s :     0.855118
  2 C s       :     3.014788  s :     3.014788
      pz      :     0.992245  p :     3.078103
      px      :     1.031865
      py      :     1.053993
      dz2     :     0.004042  d :     0.052300
      dxz     :     0.004953
      dyz     :     0.003036
      dx2y2   :     0.017348
      dxy     :     0.022921
  3 H s       :     0.854917  s :     0.854917
  4 C s       :     3.014788  s :     3.014788
      pz      :     0.992055  p :     3.077786
      px      :     1.023883
      py      :     1.061848
      dz2     :     0.004035  d :     0.052291
      dxz     :     0.005652
      dyz     :     0.002347
      dx2y2   :     0.019305
      dxy     :     0.020952
  5 H s       :     0.854909  s :     0.854909
  6 C s       :     3.014662  s :     3.014662
      pz      :     0.991714  p :     3.078020
      px      :     1.072964
      py      :     1.013342
      dz2     :     0.004050  d :     0.052316
      dxz     :     0.001394
      dyz     :     0.006602
      dx2y2   :     0.023776
      dxy     :     0.016494
  7 H s       :     0.855118  s :     0.855118
  8 C s       :     3.014788  s :     3.014788
      pz      :     0.992246  p :     3.078104
      px      :     1.031865
      py      :     1.053993
      dz2     :     0.004042  d :     0.052300
      dxz     :     0.004952
      dyz     :     0.003036
      dx2y2   :     0.017348
      dxy     :     0.022921
  9 H s       :     0.854917  s :     0.854917
 10 C s       :     3.014788  s :     3.014788
      pz      :     0.992054  p :     3.077786
      px      :     1.023883
      py      :     1.061848
      dz2     :     0.004035  d :     0.052291
      dxz     :     0.005652
      dyz     :     0.002347
      dx2y2   :     0.019305
      dxy     :     0.020952
 11 H s       :     0.854909  s :     0.854909


                      *****************************
                      * MAYER POPULATION ANALYSIS *
                      *****************************

  NA   - Mulliken gross atomic population
  ZA   - Total nuclear charge
  QA   - Mulliken gross atomic charge
  VA   - Mayer's total valence
  BVA  - Mayer's bonded valence
  FA   - Mayer's free valence

  ATOM       NA         ZA         QA         VA         BVA        FA
  0 C      6.1848     6.0000    -0.1848     3.8819     3.8819    -0.0000
  1 H      0.8160     1.0000     0.1840     0.9293     0.9293     0.0000
  2 C      6.1837     6.0000    -0.1837     3.8808     3.8808    -0.0000
  3 H      0.8163     1.0000     0.1837     0.9293     0.9293    -0.0000
  4 C      6.1820     6.0000    -0.1820     3.8814     3.8814     0.0000
  5 H      0.8173     1.0000     0.1827     0.9297     0.9297     0.0000
  6 C      6.1848     6.0000    -0.1848     3.8819     3.8819    -0.0000
  7 H      0.8160     1.0000     0.1840     0.9293     0.9293    -0.0000
  8 C      6.1837     6.0000    -0.1837     3.8808     3.8808     0.0000
  9 H      0.8163     1.0000     0.1837     0.9293     0.9293     0.0000
 10 C      6.1820     6.0000    -0.1820     3.8814     3.8814    -0.0000
 11 H      0.8173     1.0000     0.1827     0.9297     0.9297    -0.0000

  Mayer bond orders larger than 0.1
B(  0-C ,  1-H ) :   0.9229 B(  0-C ,  2-C ) :   1.4167 B(  0-C ,  6-C ) :   0.1062 
B(  0-C , 10-C ) :   1.4171 B(  2-C ,  3-H ) :   0.9228 B(  2-C ,  4-C ) :   1.4165 
B(  2-C ,  8-C ) :   0.1059 B(  4-C ,  5-H ) :   0.9232 B(  4-C ,  6-C ) :   1.4171 
B(  4-C , 10-C ) :   0.1059 B(  6-C ,  7-H ) :   0.9229 B(  6-C ,  8-C ) :   1.4167 
B(  8-C ,  9-H ) :   0.9228 B(  8-C , 10-C ) :   1.4165 B( 10-C , 11-H ) :   0.9232 


-------
TIMINGS
-------

Total SCF time: 0 days 0 hours 0 min 29 sec 

Total time                  ....      29.727 sec
Sum of individual times     ....      29.596 sec  ( 99.6%)

Fock matrix formation       ....      28.054 sec  ( 94.4%)
  XC integration            ....       2.566 sec  (  9.1% of F)
    Basis function eval.    ....       1.323 sec  ( 51.6% of XC)
    Density eval.           ....       0.209 sec  (  8.2% of XC)
    XC-Functional eval.     ....       0.480 sec  ( 18.7% of XC)
    XC-Potential eval.      ....       0.325 sec  ( 12.6% of XC)
Diagonalization             ....       0.010 sec  (  0.0%)
Density matrix formation    ....       0.001 sec  (  0.0%)
Population analysis         ....       0.013 sec  (  0.0%)
Initial guess               ....       0.386 sec  (  1.3%)
Orbital Transformation      ....       0.000 sec  (  0.0%)
Orbital Orthonormalization  ....       0.000 sec  (  0.0%)
DIIS solution               ....       0.000 sec  (  0.0%)
Grid generation             ....       1.132 sec  (  3.8%)


-------------------------------------------------------------------------------
                          DFT DISPERSION CORRECTION                            
                                                                               
                              DFTD3 V3.1  Rev 1                                
                              USING zero damping                               
-------------------------------------------------------------------------------
The omegaB97X-D3 functional is recognized. Fit by Chai et al.
Active option DFTDOPT                   ...         3   

molecular C6(AA) [au] = 1676.507365 


            DFT-D V3
 parameters
 s6 scaling factor         :     1.0000 
 rs6 scaling factor        :     1.2810 
 s8 scaling factor         :     1.0000 
 rs8 scaling factor        :     1.0940 
 Damping factor alpha6     :    14.0000 
 Damping factor alpha8     :    16.0000 
 ad hoc parameters k1-k3   :    16.0000     1.3333    -4.0000 

 Edisp/kcal,au: -1.376288504836  -0.002193255106 
 E6   /kcal   :  -0.612382621 
 E8   /kcal   :  -0.763905883 
 % E8         :  55.504778308 

-------------------------   ----------------
Dispersion correction           -0.002193255
-------------------------   ----------------


-------------------------   --------------------
FINAL SINGLE POINT ENERGY      -232.005053793029
-------------------------   --------------------


                            ***************************************
                            *     ORCA property calculations      *
                            ***************************************

                                    ---------------------
                                    Active property flags
                                    ---------------------
   (+) Dipole Moment


------------------------------------------------------------------------------
                       ORCA ELECTRIC PROPERTIES CALCULATION
------------------------------------------------------------------------------

Dipole Moment Calculation                       ... on
Quadrupole Moment Calculation                   ... off
Polarizability Calculation                      ... off
GBWName                                         ... Scan_13.gbw
Electron density file                           ... Scan_13.scfp.tmp

-------------
DIPOLE MOMENT
-------------
                                X             Y             Z
Electronic contribution:     -0.00000       0.00000       0.00000
Nuclear contribution   :      0.00000      -0.00000      -0.00000
                        -----------------------------------------
Total Dipole Moment    :      0.00000       0.00000      -0.00000
                        -----------------------------------------
Magnitude (a.u.)       :      0.00000
Magnitude (Debye)      :      0.00000


Timings for individual modules:

Sum of individual times         ...       30.066 sec (=   0.501 min)
GTO integral calculation        ...        0.315 sec (=   0.005 min)   1.0 %
SCF iterations                  ...       29.751 sec (=   0.496 min)  99.0 %
                             ****ORCA TERMINATED NORMALLY****
TOTAL RUN TIME: 0 days 0 hours 0 minutes 30 seconds 420 msec
