
                                 *****************
                                 * O   R   C   A *
                                 *****************

           --- An Ab Initio, DFT and Semiempirical electronic structure package ---

                  #######################################################
                  #                        -***-                        #
                  #  Department of molecular theory and spectroscopy    #
                  #              Directorship: Frank Neese              #
                  # Max Planck Institute for Chemical Energy Conversion #
                  #                  D-45470 Muelheim/Ruhr              #
                  #                       Germany                       #
                  #                                                     #
                  #                  All rights reserved                #
                  #                        -***-                        #
                  #######################################################


                         Program Version 4.0.0.2 - RELEASE -


 With contributions from (in alphabetic order):
   Daniel Aravena         : Magnetic Properties
   Michael Atanasov       : Ab Initio Ligand Field Theory
   Ute Becker             : Parallelization
   Martin Brehm           : Molecular dynamics
   Dmytro Bykov           : SCF Hessian
   Vijay G. Chilkuri      : MRCI spin determinant printing
   Dipayan Datta          : RHF DLPNO-CCSD density
   Achintya Kumar Dutta   : EOM-CC, STEOM-CC
   Dmitry Ganyushin       : Spin-Orbit,Spin-Spin,Magnetic field MRCI
   Yang Guo               : DLPNO-NEVPT2, CIM, IAO-localization
   Andreas Hansen         : Spin unrestricted coupled pair/coupled cluster methods
   Lee Huntington         : MR-EOM, pCC
   Robert Izsak           : Overlap fitted RIJCOSX, COSX-SCS-MP3, EOM
   Christian Kollmar      : KDIIS, OOCD, Brueckner-CCSD(T), CCSD density
   Simone Kossmann        : Meta GGA functionals, TD-DFT gradient, OOMP2, MP2 Hessian
   Martin Krupicka        : AUTO-CI
   Dagmar Lenk            : GEPOL surface
   Dimitrios Liakos       : Extrapolation schemes; parallel MDCI
   Dimitrios Manganas     : ROCIS; embedding schemes
   Dimitrios Pantazis     : SARC Basis sets
   Taras Petrenko         : DFT Hessian,TD-DFT gradient, ASA, ECA, R-Raman, ABS, FL, XAS/XES, NRVS
   Peter Pinski           : DLPNO-MP2
   Christoph Reimann      : Effective Core Potentials
   Marius Retegan         : Local ZFS, SOC
   Christoph Riplinger    : Optimizer, TS searches, QM/MM, DLPNO-CCSD(T), (RO)-DLPNO pert. Triples
   Tobias Risthaus        : Range-separated hybrids, TD-DFT gradient, RPA, STAB
   Michael Roemelt        : Restricted open shell CIS
   Masaaki Saitow         : Open-shell DLPNO
   Barbara Sandhoefer     : DKH picture change effects
   Kantharuban Sivalingam : CASSCF convergence, NEVPT2, FIC-MRCI
   Georgi Stoychev        : AutoAux
   Boris Wezisla          : Elementary symmetry handling
   Frank Wennmohs         : Technical directorship


 We gratefully acknowledge several colleagues who have allowed us to
 interface, adapt or use parts of their codes:
   Stefan Grimme, W. Hujo, H. Kruse,             : VdW corrections, initial TS optimization,
                  C. Bannwarth                     DFT functionals, gCP, sTDA/sTD-DF
   Ed Valeev                                     : LibInt (2-el integral package), F12 methods
   Garnet Chan, S. Sharma, J. Yang, R. Olivares  : DMRG
   Ulf Ekstrom                                   : XCFun DFT Library
   Mihaly Kallay                                 : mrcc  (arbitrary order and MRCC methods)
   Jiri Pittner, Ondrej Demel                    : Mk-CCSD
   Frank Weinhold                                : gennbo (NPA and NBO analysis)
   Christopher J. Cramer and Donald G. Truhlar   : smd solvation model


 Your calculation uses the libint2 library for the computation of 2-el integrals
 For citations please refer to: http://libint.valeyev.net

 This ORCA versions uses:
   CBLAS   interface :  Fast vector & matrix operations
   LAPACKE interface :  Fast linear algebra routines
   SCALAPACK package :  Parallel linear algebra routines


Your calculation utilizes the atom-pairwise dispersion correction
with the zero-damping scheme (D30)
Cite in your paper:
S.Grimme, J.Antony, S.Ehrlich and H.Krieg, J.Chem.Phys., 132, (2010), 154104 
   

XCFun DFT library Copyright 2009-2010 Ulf Ekstrom and contributors.
See http://admol.org/xcfun for more information. This is free soft-
ware; see the source code for copying conditions. There is ABSOLUTELY
NO WARRANTY; not even for MERCHANTABILITY or FITNESS FOR A PARTICULAR
PURPOSE. For details see the documentation. Scientific users of this 
library should cite U. Ekstrom, L. Visscher, R. Bast, A. J. Thorvald-
sen and K. Ruud; J.Chem.Theor.Comp. 2010, DOI: 10.1021/ct100117s
XCFun Version 0.99 
Your calculation utilizes the basis: 6-31G(d)
   H-He, Li-Ne : W. J. Hehre, R. Ditchfield and J.A. Pople, J. Chem. Phys. 56, 2257 (1972).
                 Note: He and Ne are unpublished basis sets taken from the Gaussian program.
                 Note: Li and B from J. D. Dill and J. A. Pople, J. Chem. Phys. 62, 2921 (1975).
   Na - Ar     : M. M. Francl, W. J. Pietro, W. J. Hehre, J. S. Binkley, M. S. Gordon, 
                 D. J. DeFrees and J. A. Pople, J. Chem. Phys. 77, 3654 (1982).
   K - Zn      : V. A. Rassolov, J. A. Pople, M. A. Ratner, and T. L. Windus, J. Chem. Phys. 109, 1223 (1998).

================================================================================
                                        WARNINGS
                       Please study these warnings very carefully!
================================================================================

Warning: TCutStore was < 0. Adjusted to Thresh (uncritical)

INFO   : the flag for use of LIBINT has been found!

================================================================================
                                       INPUT FILE
================================================================================
NAME = initial14.inp
|  1> ! WB97X-D3 6-31G(d) VerySlowConv
|  2> ! KDIIS NOSOSCF
|  3> %base "Scan_14"
|  4> 
|  5> %scf
|  6> maxiter 999
|  7> end
|  8> 
|  9> * xyz 0 1
| 10> C          1.804047058196   -2.871177125220    0.000167917780
| 11> H          2.866528993204   -2.952516245435   -0.000035456757
| 12> C          1.077961266626   -1.357226152025   -0.000173297568
| 13> H          1.679644460562   -0.477759035058    0.000022373125
| 14> C         -0.596201802431   -1.229057902377    0.000180664343
| 15> H         -1.057000591690   -0.268251763667   -0.000011164673
| 16> C         -1.544277039582   -2.614842763852   -0.000183016012
| 17> H         -2.606759437617   -2.533503052854    0.000013201243
| 18> C         -0.818192856728   -4.128792702450    0.000178666652
| 19> H         -1.419875805698   -5.008259288774   -0.000026912275
| 20> C          0.855968174414   -4.256958804372   -0.000170769622
| 21> H          1.316767580743   -5.217765163915    0.000037793763
| 22> **                         ****END OF INPUT****
================================================================================

                       ****************************
                       * Single Point Calculation *
                       ****************************

---------------------------------
CARTESIAN COORDINATES (ANGSTROEM)
---------------------------------
  C      1.804047   -2.871177    0.000168
  H      2.866529   -2.952516   -0.000035
  C      1.077961   -1.357226   -0.000173
  H      1.679644   -0.477759    0.000022
  C     -0.596202   -1.229058    0.000181
  H     -1.057001   -0.268252   -0.000011
  C     -1.544277   -2.614843   -0.000183
  H     -2.606759   -2.533503    0.000013
  C     -0.818193   -4.128793    0.000179
  H     -1.419876   -5.008259   -0.000027
  C      0.855968   -4.256959   -0.000171
  H      1.316768   -5.217765    0.000038

----------------------------
CARTESIAN COORDINATES (A.U.)
----------------------------
  NO LB      ZA    FRAG     MASS         X           Y           Z
   0 C     6.0000    0    12.011    3.409155   -5.425738    0.000317
   1 H     1.0000    0     1.008    5.416955   -5.579447   -0.000067
   2 C     6.0000    0    12.011    2.037052   -2.564786   -0.000327
   3 H     1.0000    0     1.008    3.174068   -0.902834    0.000042
   4 C     6.0000    0    12.011   -1.126658   -2.322583    0.000341
   5 H     1.0000    0     1.008   -1.997442   -0.506922   -0.000021
   6 C     6.0000    0    12.011   -2.918261   -4.941337   -0.000346
   7 H     1.0000    0     1.008   -4.926061   -4.787627    0.000025
   8 C     6.0000    0    12.011   -1.546160   -7.802287    0.000338
   9 H     1.0000    0     1.008   -2.683176   -9.464238   -0.000051
  10 C     6.0000    0    12.011    1.617545   -8.044486   -0.000323
  11 H     1.0000    0     1.008    2.488330   -9.860147    0.000071

--------------------------------
INTERNAL COORDINATES (ANGSTROEM)
--------------------------------
 C      0   0   0     0.000000000000     0.00000000     0.00000000
 H      1   0   0     1.065590895258     0.00000000     0.00000000
 C      1   2   0     1.679061714883   119.99999888     0.00000000
 H      3   1   2     1.065591438582   119.99998220   359.96177966
 C      3   1   2     1.679062002221   120.00004647   180.00132011
 H      5   3   1     1.065590914546   120.00001779   179.99846531
 C      5   3   1     1.679061187049   119.99987986   359.95827824
 H      7   5   3     1.065591400688   119.99989864   180.00176446
 C      7   5   3     1.679060090642   120.00009448     0.04252826
 H      9   7   5     1.065590864171   120.00001077   179.99843380
 C      9   7   5     1.679059805362   119.99994428   359.95765002
 H     11   9   7     1.065591383650   119.99997454   180.00130216

---------------------------
INTERNAL COORDINATES (A.U.)
---------------------------
 C      0   0   0     0.000000000000     0.00000000     0.00000000
 H      1   0   0     2.013674962838     0.00000000     0.00000000
 C      1   2   0     3.172966803081   119.99999888     0.00000000
 H      3   1   2     2.013675989570   119.99998220   359.96177966
 C      3   1   2     3.172967346071   120.00004647   180.00132011
 H      5   3   1     2.013674999287   120.00001779   179.99846531
 C      5   3   1     3.172965805620   119.99987986   359.95827824
 H      7   5   3     2.013675917962   119.99989864   180.00176446
 C      7   5   3     3.172963733710   120.00009448     0.04252826
 H      9   7   5     2.013674904091   120.00001077   179.99843380
 C      9   7   5     3.172963194609   119.99994428   359.95765002
 H     11   9   7     2.013675885766   119.99997454   180.00130216

---------------------
BASIS SET INFORMATION
---------------------
There are 2 groups of distinct atoms

 Group   1 Type C   : 10s4p1d contracted to 3s2p1d pattern {631/31/1}
 Group   2 Type H   : 4s contracted to 2s pattern {31}

Atom   0C    basis set group =>   1
Atom   1H    basis set group =>   2
Atom   2C    basis set group =>   1
Atom   3H    basis set group =>   2
Atom   4C    basis set group =>   1
Atom   5H    basis set group =>   2
Atom   6C    basis set group =>   1
Atom   7H    basis set group =>   2
Atom   8C    basis set group =>   1
Atom   9H    basis set group =>   2
Atom  10C    basis set group =>   1
Atom  11H    basis set group =>   2
------------------------------------------------------------------------------
                           ORCA GTO INTEGRAL CALCULATION
------------------------------------------------------------------------------

                         BASIS SET STATISTICS AND STARTUP INFO

 # of primitive gaussian shells          ...  114
 # of primitive gaussian functions       ...  186
 # of contracted shells                  ...   48
 # of contracted basis functions         ...   96
 Highest angular momentum                ...    2
 Maximum contraction depth               ...    6
 Integral package used                   ... LIBINT
 Integral threshhold            Thresh   ...  1.000e-10
 Primitive cut-off              TCut     ...  1.000e-11


------------------------------ INTEGRAL EVALUATION ----------------------------


 * One electron integrals 
 Pre-screening matrix                    ... done
 Shell pair data                         ... done (   0.001 sec)

-------------------------------------------------------------------------------
                                 ORCA SCF
-------------------------------------------------------------------------------

------------
SCF SETTINGS
------------
Hamiltonian:
 Density Functional     Method          .... DFT(GTOs)
 Exchange Functional    Exchange        .... WB97X-D3
 Correlation Functional Correlation     .... WB97X-D3
 Gradients option       PostSCFGGA      .... off
 Hybrid DFT is turned on
   Fraction HF Exchange ScalHFX         ....  0.195728
   Scaling of DF-GGA-X  ScalDFX         ....  0.000000
   Scaling of DF-GGA-C  ScalDFC         ....  1.000000
   Scaling of DF-LDA-C  ScalLDAC        ....  1.000000
   Perturbative correction              ....  0.000000
 Long-range corrected/Screened/Range-Separated Hybrid DFT is turned on
   Amount of maximum screened exact exchange              ....  0.804272
   Range separation parameter mu (erf(mu*r12)/r12)        ....  0.250000


General Settings:
 Integral files         IntName         .... Scan_14
 Hartree-Fock type      HFTyp           .... RHF
 Total Charge           Charge          ....    0
 Multiplicity           Mult            ....    1
 Number of Electrons    NEL             ....   42
 Basis Dimension        Dim             ....   96
 Nuclear Repulsion      ENuc            ....    174.4431600017 Eh

Convergence Acceleration:
 DIIS                   CNVDIIS         .... on
   Start iteration      DIISMaxIt       ....     0
   Startup error        DIISStart       ....  0.200000
   # of expansion vecs  DIISMaxEq       ....     5
   Bias factor          DIISBfac        ....   1.050
   Max. coefficient     DIISMaxC        ....  10.000
 Newton-Raphson         CNVNR           .... off
 SOSCF                  CNVSOSCF        .... off
 Level Shifting         CNVShift        .... off
 Zerner damping         CNVZerner       .... off
 Static damping         CNVDamp         .... off
 Fernandez-Rico         CNVRico         .... off

SCF Procedure:
 Maximum # iterations   MaxIter         ....   999
 SCF integral mode      SCFMode         .... Direct
   Integral package                     .... LIBINT
 Reset frequeny         DirectResetFreq ....    20
 Integral Threshold     Thresh          ....  1.000e-10 Eh
 Primitive CutOff       TCut            ....  1.000e-11 Eh

Convergence Tolerance:
 Convergence Check Mode ConvCheckMode   .... All-Criteria
 Convergence forced     ConvForced      .... 0
 Energy Change          TolE            ....  1.000e-06 Eh
 Max Density Change     TolMaxP         ....  1.000e-05
 RMS Density Change     TolRMSP         ....  1.000e-06
 DIIS Error             TolErr          ....  1.000e-06


Diagonalization of the overlap matrix:
Smallest eigenvalue                        ... 3.065e-03
Time for diagonalization                   ...    0.002 sec
Threshold for overlap eigenvalues          ... 1.000e-08
Number of eigenvalues below threshold      ... 0
Time for construction of square roots      ...    0.006 sec
Total time needed                          ...    0.008 sec

-------------------
DFT GRID GENERATION
-------------------

General Integration Accuracy     IntAcc      ...  4.340
Radial Grid Type                 RadialGrid  ... Gauss-Chebyshev
Angular Grid (max. acc.)         AngularGrid ... Lebedev-110
Angular grid pruning method      GridPruning ... 3 (G Style)
Weight generation scheme         WeightScheme... Becke
Basis function cutoff            BFCut       ...    1.0000e-10
Integration weight cutoff        WCut        ...    1.0000e-14
Grids for H and He will be reduced by one unit

# of grid points (after initial pruning)     ...  14700 (   0.0 sec)
# of grid points (after weights+screening)   ...  13902 (   0.0 sec)
nearest neighbour list constructed           ...    0.0 sec
Grid point re-assignment to atoms done       ...    0.0 sec
Grid point division into batches done        ...    0.0 sec
Reduced shell lists constructed in    0.2 sec

Total number of grid points                  ...    13902
Total number of batches                      ...      226
Average number of points per batch           ...       61
Average number of grid points per atom       ...     1158
Average number of shells per batch           ...    35.15 (73.23%)
Average number of basis functions per batch  ...    72.56 (75.58%)
Average number of large shells per batch     ...    28.07 (79.85%)
Average number of large basis fcns per batch ...    57.99 (79.92%)
Maximum spatial batch extension              ...  18.05, 20.75, 28.60 au
Average spatial batch extension              ...   3.82,  4.18,  5.39 au

Time for grid setup =    0.242 sec

------------------------------
INITIAL GUESS: MODEL POTENTIAL
------------------------------
Loading Hartree-Fock densities                     ... done
Calculating cut-offs                               ... done
Setting up the integral package                    ... done
Initializing the effective Hamiltonian             ... done
Starting the Coulomb interaction                   ... done (   0.1 sec)
Reading the grid                                   ... done
Mapping shells                                     ... done
Starting the XC term evaluation                    ... done (   0.2 sec)
  promolecular density results
     # of electrons  =     41.999408039
     EX              =    -32.023807340
     EC              =     -1.298012355
     EX+EC           =    -33.321819695
Transforming the Hamiltonian                       ... done (   0.0 sec)
Diagonalizing the Hamiltonian                      ... done (   0.0 sec)
Back transforming the eigenvectors                 ... done (   0.0 sec)
Now organizing SCF variables                       ... done
                      ------------------
                      INITIAL GUESS DONE (   0.6 sec)
                      ------------------
--------------
SCF ITERATIONS
--------------
ITER       Energy         Delta-E        Max-DP      RMS-DP      [F,P]   Gradient Norm
               ***  Starting incremental Fock matrix formation  ***
                             ****Resetting KDIIS****
                             ****Turning on KDIIS(Cayley)****
  0   -231.8325958987   0.000000000000 0.00657401  0.00045681  0.0447869   0.038642721
  1   -231.8425737521  -0.009977853458 0.00866075  0.00060424  0.0389329   0.033532446
  2   -231.8530735322  -0.010499780129 0.01422944  0.00102790  0.0314507   0.027081671
  3   -231.8656670203  -0.012593488014 0.02127092  0.00155613  0.0190280   0.016375649
  4   -231.8729039873  -0.007236967031 0.00031915  0.00002492  0.0002815   0.000218672
  5   -231.8729053224  -0.000001335117 0.00021970  0.00001768  0.0001181   0.000101344
                          ***Energy convergence achieved***
  6   -231.8729056347  -0.000000312331 0.00004408  0.00000330  0.0000480   0.000043095
                           ***RMSP convergence achieved***

            ***Energy convergence in two consecutive cycles with***
                    ***'reasonable' density convergence***
                       *** signaling convergence ***

                    *** KDIIS BlockDiag ( 0.001 sec) ***

               *****************************************************
               *                     SUCCESS                       *
               *           SCF CONVERGED AFTER   7 CYCLES          *
               *****************************************************

Setting up the final grid:

General Integration Accuracy     IntAcc      ...  4.670
Radial Grid Type                 RadialGrid  ... Gauss-Chebyshev
Angular Grid (max. acc.)         AngularGrid ... Lebedev-302
Angular grid pruning method      GridPruning ... 3 (G Style)
Weight generation scheme         WeightScheme... Becke
Basis function cutoff            BFCut       ...    1.0000e-10
Integration weight cutoff        WCut        ...    1.0000e-14
Grids for H and He will be reduced by one unit

# of grid points (after initial pruning)     ...  57636 (   0.0 sec)
# of grid points (after weights+screening)   ...  53974 (   0.1 sec)
nearest neighbour list constructed           ...    0.0 sec
Grid point re-assignment to atoms done       ...    0.0 sec
Grid point division into batches done        ...    0.2 sec
Reduced shell lists constructed in    0.8 sec

Total number of grid points                  ...    53974
Total number of batches                      ...      850
Average number of points per batch           ...       63
Average number of grid points per atom       ...     4498
Average number of shells per batch           ...    31.81 (66.26%)
Average number of basis functions per batch  ...    65.08 (67.79%)
Average number of large shells per batch     ...    24.51 (77.08%)
Average number of large basis fcns per batch ...    50.39 (77.43%)
Maximum spatial batch extension              ...  18.90, 18.28, 21.84 au
Average spatial batch extension              ...   2.59,  2.66,  3.06 au

Final grid set up in    0.9 sec
Final integration                            ... done (   0.7 sec)
Change in XC energy                          ...    -0.001200919
Integrated number of electrons               ...    42.000010429
Previous integrated no of electrons          ...    41.999232945

----------------
TOTAL SCF ENERGY
----------------

Total Energy       :         -231.87410660 Eh           -6309.61522 eV

Components:
Nuclear Repulsion  :          174.44316000 Eh            4746.83971 eV
Electronic Energy  :         -406.31726660 Eh          -11056.45492 eV
One Electron Energy:         -656.18787611 Eh          -17855.77988 eV
Two Electron Energy:          249.87060951 Eh            6799.32496 eV

Virial components:
Potential Energy   :         -459.87505445 Eh          -12513.83642 eV
Kinetic Energy     :          228.00094785 Eh            6204.22121 eV
Virial Ratio       :            2.01698747


DFT components:
N(Alpha)           :       21.000005214496 electrons
N(Beta)            :       21.000005214496 electrons
N(Total)           :       42.000010428991 electrons
E(XC)              :      -23.193191725262 Eh       

---------------
SCF CONVERGENCE
---------------

  Last Energy change         ...   -4.3413e-08  Tolerance :   1.0000e-06
  Last MAX-Density change    ...    1.2007e-05  Tolerance :   1.0000e-05
  Last RMS-Density change    ...    8.0694e-07  Tolerance :   1.0000e-06
  Last DIIS Error            ...    5.9828e-06  Tolerance :   1.0000e-06

             **** THE GBW FILE WAS UPDATED (Scan_14.gbw) ****
             **** DENSITY FILE WAS UPDATED (Scan_14.scfp.tmp) ****
             **** ENERGY FILE WAS UPDATED (Scan_14.en.tmp) ****
----------------
ORBITAL ENERGIES
----------------

  NO   OCC          E(Eh)            E(eV) 
   0   2.0000     -10.347646      -281.5738 
   1   2.0000     -10.347622      -281.5731 
   2   2.0000     -10.347487      -281.5694 
   3   2.0000     -10.347455      -281.5686 
   4   2.0000     -10.347427      -281.5678 
   5   2.0000     -10.347422      -281.5677 
   6   2.0000      -0.862311       -23.4647 
   7   2.0000      -0.803841       -21.8736 
   8   2.0000      -0.803762       -21.8715 
   9   2.0000      -0.698948       -19.0193 
  10   2.0000      -0.698921       -19.0186 
  11   2.0000      -0.625349       -17.0166 
  12   2.0000      -0.568980       -15.4827 
  13   2.0000      -0.495575       -13.4853 
  14   2.0000      -0.495477       -13.4826 
  15   2.0000      -0.463532       -12.6133 
  16   2.0000      -0.430077       -11.7030 
  17   2.0000      -0.429886       -11.6978 
  18   2.0000      -0.387672       -10.5491 
  19   2.0000      -0.297187        -8.0869 
  20   2.0000      -0.297076        -8.0838 
  21   0.0000       0.027383         0.7451 
  22   0.0000       0.027447         0.7469 
  23   0.0000       0.143553         3.9063 
  24   0.0000       0.180967         4.9244 
  25   0.0000       0.181344         4.9346 
  26   0.0000       0.202520         5.5109 
  27   0.0000       0.204852         5.5743 
  28   0.0000       0.250007         6.8030 
  29   0.0000       0.250409         6.8140 
  30   0.0000       0.263849         7.1797 
  31   0.0000       0.264087         7.1862 
  32   0.0000       0.318651         8.6709 
  33   0.0000       0.318964         8.6794 
  34   0.0000       0.394200        10.7267 
  35   0.0000       0.419096        11.4042 
  36   0.0000       0.561033        15.2665 
  37   0.0000       0.638579        17.3766 
  38   0.0000       0.643466        17.5096 
  39   0.0000       0.644715        17.5436 
  40   0.0000       0.662318        18.0226 
  41   0.0000       0.674707        18.3597 
  42   0.0000       0.675282        18.3753 
  43   0.0000       0.704558        19.1720 
  44   0.0000       0.704617        19.1736 
  45   0.0000       0.722382        19.6570 
  46   0.0000       0.746552        20.3147 
  47   0.0000       0.747021        20.3275 
  48   0.0000       0.818686        22.2776 
  49   0.0000       0.936811        25.4919 
  50   0.0000       0.938097        25.5269 
  51   0.0000       0.974958        26.5300 
  52   0.0000       0.975219        26.5371 
  53   0.0000       0.989919        26.9371 
  54   0.0000       0.990484        26.9525 
  55   0.0000       1.042593        28.3704 
  56   0.0000       1.042857        28.3776 
  57   0.0000       1.068850        29.0849 
  58   0.0000       1.102031        29.9878 
  59   0.0000       1.102686        30.0056 
  60   0.0000       1.108604        30.1666 
  61   0.0000       1.109155        30.1816 
  62   0.0000       1.148847        31.2617 
  63   0.0000       1.402852        38.1735 
  64   0.0000       1.402997        38.1775 
  65   0.0000       1.438614        39.1467 
  66   0.0000       1.586058        43.1588 
  67   0.0000       1.586766        43.1781 
  68   0.0000       1.596920        43.4544 
  69   0.0000       1.630840        44.3774 
  70   0.0000       1.631024        44.3824 
  71   0.0000       1.653909        45.0052 
  72   0.0000       1.669875        45.4396 
  73   0.0000       1.748015        47.5659 
  74   0.0000       1.823674        49.6247 
  75   0.0000       1.824370        49.6436 
  76   0.0000       1.852127        50.3989 
  77   0.0000       1.852658        50.4134 
  78   0.0000       2.054616        55.9089 
  79   0.0000       2.054804        55.9141 
  80   0.0000       2.077893        56.5423 
  81   0.0000       2.104178        57.2576 
  82   0.0000       2.141600        58.2759 
  83   0.0000       2.141777        58.2807 
  84   0.0000       2.150850        58.5276 
  85   0.0000       2.151638        58.5490 
  86   0.0000       2.292247        62.3752 
  87   0.0000       2.429250        66.1032 
  88   0.0000       2.429582        66.1123 
  89   0.0000       2.571205        69.9661 
  90   0.0000       2.571503        69.9742 
  91   0.0000       2.587356        70.4055 
  92   0.0000       2.587658        70.4137 
  93   0.0000       2.623251        71.3823 
  94   0.0000       2.780829        75.6702 
  95   0.0000       2.926892        79.6448 

                    ********************************
                    * MULLIKEN POPULATION ANALYSIS *
                    ********************************

-----------------------
MULLIKEN ATOMIC CHARGES
-----------------------
   0 C :   -0.191305
   1 H :    0.190552
   2 C :   -0.190703
   3 H :    0.190530
   4 C :   -0.188694
   5 H :    0.189621
   6 C :   -0.191305
   7 H :    0.190551
   8 C :   -0.190704
   9 H :    0.190530
  10 C :   -0.188693
  11 H :    0.189620
Sum of atomic charges:   -0.0000000

--------------------------------
MULLIKEN REDUCED ORBITAL CHARGES
--------------------------------
  0 C s       :     3.317040  s :     3.317040
      pz      :     0.996289  p :     2.850492
      px      :     0.975143
      py      :     0.879060
      dz2     :     0.002882  d :     0.023773
      dxz     :     0.000417
      dyz     :     0.002864
      dx2y2   :     0.011704
      dxy     :     0.005906
  1 H s       :     0.809448  s :     0.809448
  2 C s       :     3.317801  s :     3.317801
      pz      :     0.997022  p :     2.849183
      px      :     0.908044
      py      :     0.944118
      dz2     :     0.002878  d :     0.023719
      dxz     :     0.002087
      dyz     :     0.001187
      dx2y2   :     0.006560
      dxy     :     0.011007
  3 H s       :     0.809470  s :     0.809470
  4 C s       :     3.317605  s :     3.317605
      pz      :     0.996851  p :     2.847383
      px      :     0.894729
      py      :     0.955803
      dz2     :     0.002866  d :     0.023706
      dxz     :     0.002417
      dyz     :     0.000866
      dx2y2   :     0.008120
      dxy     :     0.009437
  5 H s       :     0.810379  s :     0.810379
  6 C s       :     3.317040  s :     3.317040
      pz      :     0.996288  p :     2.850491
      px      :     0.975143
      py      :     0.879061
      dz2     :     0.002882  d :     0.023773
      dxz     :     0.000417
      dyz     :     0.002864
      dx2y2   :     0.011704
      dxy     :     0.005906
  7 H s       :     0.809449  s :     0.809449
  8 C s       :     3.317800  s :     3.317800
      pz      :     0.997023  p :     2.849185
      px      :     0.908044
      py      :     0.944118
      dz2     :     0.002878  d :     0.023719
      dxz     :     0.002087
      dyz     :     0.001187
      dx2y2   :     0.006560
      dxy     :     0.011007
  9 H s       :     0.809470  s :     0.809470
 10 C s       :     3.317605  s :     3.317605
      pz      :     0.996850  p :     2.847383
      px      :     0.894729
      py      :     0.955804
      dz2     :     0.002866  d :     0.023706
      dxz     :     0.002417
      dyz     :     0.000866
      dx2y2   :     0.008120
      dxy     :     0.009437
 11 H s       :     0.810380  s :     0.810380


                     *******************************
                     * LOEWDIN POPULATION ANALYSIS *
                     *******************************

----------------------
LOEWDIN ATOMIC CHARGES
----------------------
   0 C :   -0.147158
   1 H :    0.147058
   2 C :   -0.147493
   3 H :    0.147300
   4 C :   -0.147009
   5 H :    0.147301
   6 C :   -0.147157
   7 H :    0.147058
   8 C :   -0.147493
   9 H :    0.147301
  10 C :   -0.147008
  11 H :    0.147301

-------------------------------
LOEWDIN REDUCED ORBITAL CHARGES
-------------------------------
  0 C s       :     3.057730  s :     3.057730
      pz      :     0.993845  p :     3.045664
      px      :     1.063876
      py      :     0.987944
      dz2     :     0.003470  d :     0.043763
      dxz     :     0.000925
      dyz     :     0.004888
      dx2y2   :     0.021147
      dxy     :     0.013334
  1 H s       :     0.852942  s :     0.852942
  2 C s       :     3.057876  s :     3.057876
      pz      :     0.994456  p :     3.045888
      px      :     1.011643
      py      :     1.039789
      dz2     :     0.003463  d :     0.043729
      dxz     :     0.003630
      dyz     :     0.002174
      dx2y2   :     0.014236
      dxy     :     0.020226
  3 H s       :     0.852700  s :     0.852700
  4 C s       :     3.057892  s :     3.057892
      pz      :     0.994272  p :     3.045386
      px      :     1.001334
      py      :     1.049779
      dz2     :     0.003454  d :     0.043731
      dxz     :     0.004161
      dyz     :     0.001650
      dx2y2   :     0.016349
      dxy     :     0.018117
  5 H s       :     0.852699  s :     0.852699
  6 C s       :     3.057730  s :     3.057730
      pz      :     0.993844  p :     3.045664
      px      :     1.063876
      py      :     0.987944
      dz2     :     0.003470  d :     0.043763
      dxz     :     0.000925
      dyz     :     0.004888
      dx2y2   :     0.021147
      dxy     :     0.013334
  7 H s       :     0.852942  s :     0.852942
  8 C s       :     3.057875  s :     3.057875
      pz      :     0.994457  p :     3.045889
      px      :     1.011643
      py      :     1.039789
      dz2     :     0.003463  d :     0.043729
      dxz     :     0.003630
      dyz     :     0.002174
      dx2y2   :     0.014236
      dxy     :     0.020226
  9 H s       :     0.852699  s :     0.852699
 10 C s       :     3.057891  s :     3.057891
      pz      :     0.994272  p :     3.045385
      px      :     1.001335
      py      :     1.049779
      dz2     :     0.003454  d :     0.043731
      dxz     :     0.004161
      dyz     :     0.001650
      dx2y2   :     0.016349
      dxy     :     0.018117
 11 H s       :     0.852699  s :     0.852699


                      *****************************
                      * MAYER POPULATION ANALYSIS *
                      *****************************

  NA   - Mulliken gross atomic population
  ZA   - Total nuclear charge
  QA   - Mulliken gross atomic charge
  VA   - Mayer's total valence
  BVA  - Mayer's bonded valence
  FA   - Mayer's free valence

  ATOM       NA         ZA         QA         VA         BVA        FA
  0 C      6.1913     6.0000    -0.1913     3.8589     3.8589    -0.0000
  1 H      0.8094     1.0000     0.1906     0.9262     0.9262    -0.0000
  2 C      6.1907     6.0000    -0.1907     3.8579     3.8579    -0.0000
  3 H      0.8095     1.0000     0.1905     0.9261     0.9261    -0.0000
  4 C      6.1887     6.0000    -0.1887     3.8581     3.8581    -0.0000
  5 H      0.8104     1.0000     0.1896     0.9265     0.9265    -0.0000
  6 C      6.1913     6.0000    -0.1913     3.8589     3.8589    -0.0000
  7 H      0.8094     1.0000     0.1906     0.9262     0.9262    -0.0000
  8 C      6.1907     6.0000    -0.1907     3.8579     3.8579    -0.0000
  9 H      0.8095     1.0000     0.1905     0.9261     0.9261     0.0000
 10 C      6.1887     6.0000    -0.1887     3.8581     3.8581     0.0000
 11 H      0.8104     1.0000     0.1896     0.9265     0.9265    -0.0000

  Mayer bond orders larger than 0.1
B(  0-C ,  1-H ) :   0.9139 B(  0-C ,  2-C ) :   1.4020 B(  0-C ,  6-C ) :   0.1076 
B(  0-C , 10-C ) :   1.4021 B(  2-C ,  3-H ) :   0.9137 B(  2-C ,  4-C ) :   1.4015 
B(  2-C ,  8-C ) :   0.1074 B(  4-C ,  5-H ) :   0.9141 B(  4-C ,  6-C ) :   1.4021 
B(  4-C , 10-C ) :   0.1074 B(  6-C ,  7-H ) :   0.9139 B(  6-C ,  8-C ) :   1.4020 
B(  8-C ,  9-H ) :   0.9137 B(  8-C , 10-C ) :   1.4015 B( 10-C , 11-H ) :   0.9141 


-------
TIMINGS
-------

Total SCF time: 0 days 0 hours 0 min 27 sec 

Total time                  ....      27.526 sec
Sum of individual times     ....      27.402 sec  ( 99.6%)

Fock matrix formation       ....      25.888 sec  ( 94.1%)
  XC integration            ....       2.480 sec  (  9.6% of F)
    Basis function eval.    ....       1.263 sec  ( 50.9% of XC)
    Density eval.           ....       0.191 sec  (  7.7% of XC)
    XC-Functional eval.     ....       0.480 sec  ( 19.4% of XC)
    XC-Potential eval.      ....       0.311 sec  ( 12.5% of XC)
Diagonalization             ....       0.016 sec  (  0.1%)
Density matrix formation    ....       0.001 sec  (  0.0%)
Population analysis         ....       0.012 sec  (  0.0%)
Initial guess               ....       0.374 sec  (  1.4%)
Orbital Transformation      ....       0.000 sec  (  0.0%)
Orbital Orthonormalization  ....       0.000 sec  (  0.0%)
DIIS solution               ....       0.000 sec  (  0.0%)
Grid generation             ....       1.112 sec  (  4.0%)


-------------------------------------------------------------------------------
                          DFT DISPERSION CORRECTION                            
                                                                               
                              DFTD3 V3.1  Rev 1                                
                              USING zero damping                               
-------------------------------------------------------------------------------
The omegaB97X-D3 functional is recognized. Fit by Chai et al.
Active option DFTDOPT                   ...         3   

molecular C6(AA) [au] = 1682.062467 


            DFT-D V3
 parameters
 s6 scaling factor         :     1.0000 
 rs6 scaling factor        :     1.2810 
 s8 scaling factor         :     1.0000 
 rs8 scaling factor        :     1.0940 
 Damping factor alpha6     :    14.0000 
 Damping factor alpha8     :    16.0000 
 ad hoc parameters k1-k3   :    16.0000     1.3333    -4.0000 

 Edisp/kcal,au: -1.415082613285  -0.002255077446 
 E6   /kcal   :  -0.597987143 
 E8   /kcal   :  -0.817095470 
 % E8         :  57.741891720 

-------------------------   ----------------
Dispersion correction           -0.002255077
-------------------------   ----------------


-------------------------   --------------------
FINAL SINGLE POINT ENERGY      -231.876361674225
-------------------------   --------------------


                            ***************************************
                            *     ORCA property calculations      *
                            ***************************************

                                    ---------------------
                                    Active property flags
                                    ---------------------
   (+) Dipole Moment


------------------------------------------------------------------------------
                       ORCA ELECTRIC PROPERTIES CALCULATION
------------------------------------------------------------------------------

Dipole Moment Calculation                       ... on
Quadrupole Moment Calculation                   ... off
Polarizability Calculation                      ... off
GBWName                                         ... Scan_14.gbw
Electron density file                           ... Scan_14.scfp.tmp

-------------
DIPOLE MOMENT
-------------
                                X             Y             Z
Electronic contribution:     -0.00000      -0.00000       0.00000
Nuclear contribution   :      0.00000       0.00000      -0.00000
                        -----------------------------------------
Total Dipole Moment    :     -0.00000      -0.00000      -0.00000
                        -----------------------------------------
Magnitude (a.u.)       :      0.00000
Magnitude (Debye)      :      0.00000


Timings for individual modules:

Sum of individual times         ...       27.870 sec (=   0.464 min)
GTO integral calculation        ...        0.320 sec (=   0.005 min)   1.1 %
SCF iterations                  ...       27.550 sec (=   0.459 min)  98.9 %
                             ****ORCA TERMINATED NORMALLY****
TOTAL RUN TIME: 0 days 0 hours 0 minutes 28 seconds 191 msec
