
                                 *****************
                                 * O   R   C   A *
                                 *****************

           --- An Ab Initio, DFT and Semiempirical electronic structure package ---

                  #######################################################
                  #                        -***-                        #
                  #  Department of molecular theory and spectroscopy    #
                  #              Directorship: Frank Neese              #
                  # Max Planck Institute for Chemical Energy Conversion #
                  #                  D-45470 Muelheim/Ruhr              #
                  #                       Germany                       #
                  #                                                     #
                  #                  All rights reserved                #
                  #                        -***-                        #
                  #######################################################


                         Program Version 4.0.0.2 - RELEASE -


 With contributions from (in alphabetic order):
   Daniel Aravena         : Magnetic Properties
   Michael Atanasov       : Ab Initio Ligand Field Theory
   Ute Becker             : Parallelization
   Martin Brehm           : Molecular dynamics
   Dmytro Bykov           : SCF Hessian
   Vijay G. Chilkuri      : MRCI spin determinant printing
   Dipayan Datta          : RHF DLPNO-CCSD density
   Achintya Kumar Dutta   : EOM-CC, STEOM-CC
   Dmitry Ganyushin       : Spin-Orbit,Spin-Spin,Magnetic field MRCI
   Yang Guo               : DLPNO-NEVPT2, CIM, IAO-localization
   Andreas Hansen         : Spin unrestricted coupled pair/coupled cluster methods
   Lee Huntington         : MR-EOM, pCC
   Robert Izsak           : Overlap fitted RIJCOSX, COSX-SCS-MP3, EOM
   Christian Kollmar      : KDIIS, OOCD, Brueckner-CCSD(T), CCSD density
   Simone Kossmann        : Meta GGA functionals, TD-DFT gradient, OOMP2, MP2 Hessian
   Martin Krupicka        : AUTO-CI
   Dagmar Lenk            : GEPOL surface
   Dimitrios Liakos       : Extrapolation schemes; parallel MDCI
   Dimitrios Manganas     : ROCIS; embedding schemes
   Dimitrios Pantazis     : SARC Basis sets
   Taras Petrenko         : DFT Hessian,TD-DFT gradient, ASA, ECA, R-Raman, ABS, FL, XAS/XES, NRVS
   Peter Pinski           : DLPNO-MP2
   Christoph Reimann      : Effective Core Potentials
   Marius Retegan         : Local ZFS, SOC
   Christoph Riplinger    : Optimizer, TS searches, QM/MM, DLPNO-CCSD(T), (RO)-DLPNO pert. Triples
   Tobias Risthaus        : Range-separated hybrids, TD-DFT gradient, RPA, STAB
   Michael Roemelt        : Restricted open shell CIS
   Masaaki Saitow         : Open-shell DLPNO
   Barbara Sandhoefer     : DKH picture change effects
   Kantharuban Sivalingam : CASSCF convergence, NEVPT2, FIC-MRCI
   Georgi Stoychev        : AutoAux
   Boris Wezisla          : Elementary symmetry handling
   Frank Wennmohs         : Technical directorship


 We gratefully acknowledge several colleagues who have allowed us to
 interface, adapt or use parts of their codes:
   Stefan Grimme, W. Hujo, H. Kruse,             : VdW corrections, initial TS optimization,
                  C. Bannwarth                     DFT functionals, gCP, sTDA/sTD-DF
   Ed Valeev                                     : LibInt (2-el integral package), F12 methods
   Garnet Chan, S. Sharma, J. Yang, R. Olivares  : DMRG
   Ulf Ekstrom                                   : XCFun DFT Library
   Mihaly Kallay                                 : mrcc  (arbitrary order and MRCC methods)
   Jiri Pittner, Ondrej Demel                    : Mk-CCSD
   Frank Weinhold                                : gennbo (NPA and NBO analysis)
   Christopher J. Cramer and Donald G. Truhlar   : smd solvation model


 Your calculation uses the libint2 library for the computation of 2-el integrals
 For citations please refer to: http://libint.valeyev.net

 This ORCA versions uses:
   CBLAS   interface :  Fast vector & matrix operations
   LAPACKE interface :  Fast linear algebra routines
   SCALAPACK package :  Parallel linear algebra routines


Your calculation utilizes the atom-pairwise dispersion correction
with the zero-damping scheme (D30)
Cite in your paper:
S.Grimme, J.Antony, S.Ehrlich and H.Krieg, J.Chem.Phys., 132, (2010), 154104 
   

XCFun DFT library Copyright 2009-2010 Ulf Ekstrom and contributors.
See http://admol.org/xcfun for more information. This is free soft-
ware; see the source code for copying conditions. There is ABSOLUTELY
NO WARRANTY; not even for MERCHANTABILITY or FITNESS FOR A PARTICULAR
PURPOSE. For details see the documentation. Scientific users of this 
library should cite U. Ekstrom, L. Visscher, R. Bast, A. J. Thorvald-
sen and K. Ruud; J.Chem.Theor.Comp. 2010, DOI: 10.1021/ct100117s
XCFun Version 0.99 
Your calculation utilizes the basis: 6-31G(d)
   H-He, Li-Ne : W. J. Hehre, R. Ditchfield and J.A. Pople, J. Chem. Phys. 56, 2257 (1972).
                 Note: He and Ne are unpublished basis sets taken from the Gaussian program.
                 Note: Li and B from J. D. Dill and J. A. Pople, J. Chem. Phys. 62, 2921 (1975).
   Na - Ar     : M. M. Francl, W. J. Pietro, W. J. Hehre, J. S. Binkley, M. S. Gordon, 
                 D. J. DeFrees and J. A. Pople, J. Chem. Phys. 77, 3654 (1982).
   K - Zn      : V. A. Rassolov, J. A. Pople, M. A. Ratner, and T. L. Windus, J. Chem. Phys. 109, 1223 (1998).

================================================================================
                                        WARNINGS
                       Please study these warnings very carefully!
================================================================================

Warning: TCutStore was < 0. Adjusted to Thresh (uncritical)

INFO   : the flag for use of LIBINT has been found!

================================================================================
                                       INPUT FILE
================================================================================
NAME = initial15.inp
|  1> ! WB97X-D3 6-31G(d) VerySlowConv
|  2> ! KDIIS NOSOSCF
|  3> %base "Scan_15"
|  4> 
|  5> %scf
|  6> maxiter 999
|  7> end
|  8> 
|  9> * xyz 0 1
| 10> C          1.890338872268   -2.877764024667    0.121761229536
| 11> H          2.935205972148   -2.957778038157   -0.080720743760
| 12> C          1.126807201108   -1.285778804076   -0.121757842201
| 13> H          1.718549619747   -0.420915727532    0.080706349285
| 14> C         -0.633639960785   -1.151021955361    0.121852440366
| 15> H         -1.086776727690   -0.206175312610   -0.080771759499
| 16> C         -1.630573701547   -2.608213758677   -0.121846865942
| 17> H         -2.675405221773   -2.528250024080    0.080767498977
| 18> C         -0.867086985170   -4.200206357274    0.121737181303
| 19> H         -1.458773720912   -5.065115630085   -0.080712700272
| 20> C          0.893389039706   -4.334998480792   -0.121692814775
| 21> H          1.346575612898   -5.279891886690    0.080678026983
| 22> **                         ****END OF INPUT****
================================================================================

                       ****************************
                       * Single Point Calculation *
                       ****************************

---------------------------------
CARTESIAN COORDINATES (ANGSTROEM)
---------------------------------
  C      1.890339   -2.877764    0.121761
  H      2.935206   -2.957778   -0.080721
  C      1.126807   -1.285779   -0.121758
  H      1.718550   -0.420916    0.080706
  C     -0.633640   -1.151022    0.121852
  H     -1.086777   -0.206175   -0.080772
  C     -1.630574   -2.608214   -0.121847
  H     -2.675405   -2.528250    0.080767
  C     -0.867087   -4.200206    0.121737
  H     -1.458774   -5.065116   -0.080713
  C      0.893389   -4.334998   -0.121693
  H      1.346576   -5.279892    0.080678

----------------------------
CARTESIAN COORDINATES (A.U.)
----------------------------
  NO LB      ZA    FRAG     MASS         X           Y           Z
   0 C     6.0000    0    12.011    3.572223   -5.438186    0.230095
   1 H     1.0000    0     1.008    5.546735   -5.589390   -0.152540
   2 C     6.0000    0    12.011    2.129357   -2.429770   -0.230089
   3 H     1.0000    0     1.008    3.247588   -0.795415    0.152513
   4 C     6.0000    0    12.011   -1.197406   -2.175116    0.230268
   5 H     1.0000    0     1.008   -2.053710   -0.389615   -0.152637
   6 C     6.0000    0    12.011   -3.081338   -4.928810   -0.230257
   7 H     1.0000    0     1.008   -5.055783   -4.777700    0.152628
   8 C     6.0000    0    12.011   -1.638557   -7.937240    0.230050
   9 H     1.0000    0     1.008   -2.756683   -9.571681   -0.152525
  10 C     6.0000    0    12.011    1.688261   -8.191960   -0.229966
  11 H     1.0000    0     1.008    2.544659   -9.977550    0.152459

--------------------------------
INTERNAL COORDINATES (ANGSTROEM)
--------------------------------
 C      0   0   0     0.000000000000     0.00000000     0.00000000
 H      1   0   0     1.067308975075     0.00000000     0.00000000
 C      1   2   0     1.782329681553   117.41443961     0.00000000
 H      3   1   2     1.067304539492   117.41012649   326.61290970
 C      3   1   2     1.782324209527   118.16352334   176.62267282
 H      5   3   1     1.067297837630   117.40888722   183.38834136
 C      5   3   1     1.782322694412   118.16263329   333.36205621
 H      7   5   3     1.067295500496   117.41039455   176.61504490
 C      7   5   3     1.782325892800   118.16294581    26.64026612
 H      9   7   5     1.067308389360   117.41481118   183.37218013
 C      9   7   5     1.782330753176   118.16405150   333.36620649
 H     11   9   7     1.067312314285   117.41647057   176.62832833

---------------------------
INTERNAL COORDINATES (A.U.)
---------------------------
 C      0   0   0     0.000000000000     0.00000000     0.00000000
 H      1   0   0     2.016921663168     0.00000000     0.00000000
 C      1   2   0     3.368114978494   117.41443961     0.00000000
 H      3   1   2     2.016913281131   117.41012649   326.61290970
 C      3   1   2     3.368104637863   118.16352334   176.62267282
 H      5   3   1     2.016900616447   117.40888722   183.38834136
 C      5   3   1     3.368101774711   118.16263329   333.36205621
 H      7   5   3     2.016896199905   117.41039455   176.61504490
 C      7   5   3     3.368107818788   118.16294581    26.64026612
 H      9   7   5     2.016920556326   117.41481118   183.37218013
 C      9   7   5     3.368117003568   118.16405150   333.36620649
 H     11   9   7     2.016927973361   117.41647057   176.62832833

---------------------
BASIS SET INFORMATION
---------------------
There are 2 groups of distinct atoms

 Group   1 Type C   : 10s4p1d contracted to 3s2p1d pattern {631/31/1}
 Group   2 Type H   : 4s contracted to 2s pattern {31}

Atom   0C    basis set group =>   1
Atom   1H    basis set group =>   2
Atom   2C    basis set group =>   1
Atom   3H    basis set group =>   2
Atom   4C    basis set group =>   1
Atom   5H    basis set group =>   2
Atom   6C    basis set group =>   1
Atom   7H    basis set group =>   2
Atom   8C    basis set group =>   1
Atom   9H    basis set group =>   2
Atom  10C    basis set group =>   1
Atom  11H    basis set group =>   2
------------------------------------------------------------------------------
                           ORCA GTO INTEGRAL CALCULATION
------------------------------------------------------------------------------

                         BASIS SET STATISTICS AND STARTUP INFO

 # of primitive gaussian shells          ...  114
 # of primitive gaussian functions       ...  186
 # of contracted shells                  ...   48
 # of contracted basis functions         ...   96
 Highest angular momentum                ...    2
 Maximum contraction depth               ...    6
 Integral package used                   ... LIBINT
 Integral threshhold            Thresh   ...  1.000e-10
 Primitive cut-off              TCut     ...  1.000e-11


------------------------------ INTEGRAL EVALUATION ----------------------------


 * One electron integrals 
 Pre-screening matrix                    ... done
 Shell pair data                         ... done (   0.001 sec)

-------------------------------------------------------------------------------
                                 ORCA SCF
-------------------------------------------------------------------------------

------------
SCF SETTINGS
------------
Hamiltonian:
 Density Functional     Method          .... DFT(GTOs)
 Exchange Functional    Exchange        .... WB97X-D3
 Correlation Functional Correlation     .... WB97X-D3
 Gradients option       PostSCFGGA      .... off
 Hybrid DFT is turned on
   Fraction HF Exchange ScalHFX         ....  0.195728
   Scaling of DF-GGA-X  ScalDFX         ....  0.000000
   Scaling of DF-GGA-C  ScalDFC         ....  1.000000
   Scaling of DF-LDA-C  ScalLDAC        ....  1.000000
   Perturbative correction              ....  0.000000
 Long-range corrected/Screened/Range-Separated Hybrid DFT is turned on
   Amount of maximum screened exact exchange              ....  0.804272
   Range separation parameter mu (erf(mu*r12)/r12)        ....  0.250000


General Settings:
 Integral files         IntName         .... Scan_15
 Hartree-Fock type      HFTyp           .... RHF
 Total Charge           Charge          ....    0
 Multiplicity           Mult            ....    1
 Number of Electrons    NEL             ....   42
 Basis Dimension        Dim             ....   96
 Nuclear Repulsion      ENuc            ....    166.7036726239 Eh

Convergence Acceleration:
 DIIS                   CNVDIIS         .... on
   Start iteration      DIISMaxIt       ....     0
   Startup error        DIISStart       ....  0.200000
   # of expansion vecs  DIISMaxEq       ....     5
   Bias factor          DIISBfac        ....   1.050
   Max. coefficient     DIISMaxC        ....  10.000
 Newton-Raphson         CNVNR           .... off
 SOSCF                  CNVSOSCF        .... off
 Level Shifting         CNVShift        .... off
 Zerner damping         CNVZerner       .... off
 Static damping         CNVDamp         .... off
 Fernandez-Rico         CNVRico         .... off

SCF Procedure:
 Maximum # iterations   MaxIter         ....   999
 SCF integral mode      SCFMode         .... Direct
   Integral package                     .... LIBINT
 Reset frequeny         DirectResetFreq ....    20
 Integral Threshold     Thresh          ....  1.000e-10 Eh
 Primitive CutOff       TCut            ....  1.000e-11 Eh

Convergence Tolerance:
 Convergence Check Mode ConvCheckMode   .... All-Criteria
 Convergence forced     ConvForced      .... 0
 Energy Change          TolE            ....  1.000e-06 Eh
 Max Density Change     TolMaxP         ....  1.000e-05
 RMS Density Change     TolRMSP         ....  1.000e-06
 DIIS Error             TolErr          ....  1.000e-06


Diagonalization of the overlap matrix:
Smallest eigenvalue                        ... 1.076e-02
Time for diagonalization                   ...    0.002 sec
Threshold for overlap eigenvalues          ... 1.000e-08
Number of eigenvalues below threshold      ... 0
Time for construction of square roots      ...    0.005 sec
Total time needed                          ...    0.007 sec

-------------------
DFT GRID GENERATION
-------------------

General Integration Accuracy     IntAcc      ...  4.340
Radial Grid Type                 RadialGrid  ... Gauss-Chebyshev
Angular Grid (max. acc.)         AngularGrid ... Lebedev-110
Angular grid pruning method      GridPruning ... 3 (G Style)
Weight generation scheme         WeightScheme... Becke
Basis function cutoff            BFCut       ...    1.0000e-10
Integration weight cutoff        WCut        ...    1.0000e-14
Grids for H and He will be reduced by one unit

# of grid points (after initial pruning)     ...  14700 (   0.0 sec)
# of grid points (after weights+screening)   ...  13972 (   0.0 sec)
nearest neighbour list constructed           ...    0.0 sec
Grid point re-assignment to atoms done       ...    0.0 sec
Grid point division into batches done        ...    0.0 sec
Reduced shell lists constructed in    0.2 sec

Total number of grid points                  ...    13972
Total number of batches                      ...      224
Average number of points per batch           ...       62
Average number of grid points per atom       ...     1164
Average number of shells per batch           ...    34.48 (71.84%)
Average number of basis functions per batch  ...    70.75 (73.70%)
Average number of large shells per batch     ...    27.08 (78.54%)
Average number of large basis fcns per batch ...    55.52 (78.47%)
Maximum spatial batch extension              ...  17.42, 20.39, 26.06 au
Average spatial batch extension              ...   3.92,  4.21,  5.18 au

Time for grid setup =    0.247 sec

------------------------------
INITIAL GUESS: MODEL POTENTIAL
------------------------------
Loading Hartree-Fock densities                     ... done
Calculating cut-offs                               ... done
Setting up the integral package                    ... done
Initializing the effective Hamiltonian             ... done
Starting the Coulomb interaction                   ... done (   0.1 sec)
Reading the grid                                   ... done
Mapping shells                                     ... done
Starting the XC term evaluation                    ... done (   0.2 sec)
  promolecular density results
     # of electrons  =     41.995121594
     EX              =    -31.925227018
     EC              =     -1.276764941
     EX+EC           =    -33.201991959
Transforming the Hamiltonian                       ... done (   0.0 sec)
Diagonalizing the Hamiltonian                      ... done (   0.0 sec)
Back transforming the eigenvectors                 ... done (   0.0 sec)
Now organizing SCF variables                       ... done
                      ------------------
                      INITIAL GUESS DONE (   0.6 sec)
                      ------------------
--------------
SCF ITERATIONS
--------------
ITER       Energy         Delta-E        Max-DP      RMS-DP      [F,P]   Gradient Norm
               ***  Starting incremental Fock matrix formation  ***
                             ****Resetting KDIIS****
                             ****Turning on KDIIS(Cayley)****
  0   -231.6660700526   0.000000000000 0.00522727  0.00038427  0.0429564   0.033013572
  1   -231.6730739199  -0.007003867318 0.00733959  0.00053219  0.0376490   0.028902641
  2   -231.6809162910  -0.007842371110 0.01218989  0.00092214  0.0304956   0.023344298
  3   -231.6904019203  -0.009485629328 0.01836027  0.00139438  0.0184406   0.014090918
  4   -231.6958300661  -0.005428145706 0.00033382  0.00002092  0.0001644   0.000169310
                          ***Energy convergence achieved***
  5   -231.6958308750  -0.000000808934 0.00020547  0.00001286  0.0000890   0.000090960

            ***Energy convergence in two consecutive cycles with***
                    ***'reasonable' density convergence***
                       *** signaling convergence ***

                    *** KDIIS BlockDiag ( 0.001 sec) ***

               *****************************************************
               *                     SUCCESS                       *
               *           SCF CONVERGED AFTER   6 CYCLES          *
               *****************************************************

Setting up the final grid:

General Integration Accuracy     IntAcc      ...  4.670
Radial Grid Type                 RadialGrid  ... Gauss-Chebyshev
Angular Grid (max. acc.)         AngularGrid ... Lebedev-302
Angular grid pruning method      GridPruning ... 3 (G Style)
Weight generation scheme         WeightScheme... Becke
Basis function cutoff            BFCut       ...    1.0000e-10
Integration weight cutoff        WCut        ...    1.0000e-14
Grids for H and He will be reduced by one unit

# of grid points (after initial pruning)     ...  57636 (   0.0 sec)
# of grid points (after weights+screening)   ...  54122 (   0.1 sec)
nearest neighbour list constructed           ...    0.0 sec
Grid point re-assignment to atoms done       ...    0.0 sec
Grid point division into batches done        ...    0.2 sec
Reduced shell lists constructed in    0.8 sec

Total number of grid points                  ...    54122
Total number of batches                      ...      852
Average number of points per batch           ...       63
Average number of grid points per atom       ...     4510
Average number of shells per batch           ...    31.09 (64.78%)
Average number of basis functions per batch  ...    63.45 (66.09%)
Average number of large shells per batch     ...    23.60 (75.89%)
Average number of large basis fcns per batch ...    48.29 (76.11%)
Maximum spatial batch extension              ...  17.68, 19.09, 21.31 au
Average spatial batch extension              ...   2.66,  2.74,  3.00 au

Final grid set up in    0.9 sec
Final integration                            ... done (   0.7 sec)
Change in XC energy                          ...    -0.001805325
Integrated number of electrons               ...    42.000001508
Previous integrated no of electrons          ...    41.998252618

----------------
TOTAL SCF ENERGY
----------------

Total Energy       :         -231.69763647 Eh           -6304.81322 eV

Components:
Nuclear Repulsion  :          166.70367262 Eh            4536.23755 eV
Electronic Energy  :         -398.40130909 Eh          -10841.05077 eV
One Electron Energy:         -640.51524589 Eh          -17429.30593 eV
Two Electron Energy:          242.11393679 Eh            6588.25516 eV

Virial components:
Potential Energy   :         -459.40636849 Eh          -12501.08283 eV
Kinetic Energy     :          227.70873202 Eh            6196.26961 eV
Virial Ratio       :            2.01751757


DFT components:
N(Alpha)           :       21.000000753795 electrons
N(Beta)            :       21.000000753795 electrons
N(Total)           :       42.000001507590 electrons
E(XC)              :      -23.061753708951 Eh       

---------------
SCF CONVERGENCE
---------------

  Last Energy change         ...   -2.6693e-07  Tolerance :   1.0000e-06
  Last MAX-Density change    ...    5.3878e-05  Tolerance :   1.0000e-05
  Last RMS-Density change    ...    3.1496e-06  Tolerance :   1.0000e-06
  Last DIIS Error            ...    2.7642e-05  Tolerance :   1.0000e-06

             **** THE GBW FILE WAS UPDATED (Scan_15.gbw) ****
             **** DENSITY FILE WAS UPDATED (Scan_15.scfp.tmp) ****
             **** ENERGY FILE WAS UPDATED (Scan_15.en.tmp) ****
----------------
ORBITAL ENERGIES
----------------

  NO   OCC          E(Eh)            E(eV) 
   0   2.0000     -10.363870      -282.0153 
   1   2.0000     -10.363840      -282.0144 
   2   2.0000     -10.363759      -282.0122 
   3   2.0000     -10.363738      -282.0117 
   4   2.0000     -10.363701      -282.0106 
   5   2.0000     -10.363701      -282.0106 
   6   2.0000      -0.841013       -22.8851 
   7   2.0000      -0.792424       -21.5630 
   8   2.0000      -0.792403       -21.5624 
   9   2.0000      -0.700562       -19.0633 
  10   2.0000      -0.700520       -19.0621 
  11   2.0000      -0.640302       -17.4235 
  12   2.0000      -0.548559       -14.9271 
  13   2.0000      -0.482402       -13.1268 
  14   2.0000      -0.482382       -13.1263 
  15   2.0000      -0.438195       -11.9239 
  16   2.0000      -0.418285       -11.3821 
  17   2.0000      -0.418237       -11.3808 
  18   2.0000      -0.375359       -10.2140 
  19   2.0000      -0.295346        -8.0368 
  20   2.0000      -0.295249        -8.0341 
  21   0.0000       0.000610         0.0166 
  22   0.0000       0.000693         0.0189 
  23   0.0000       0.094012         2.5582 
  24   0.0000       0.145871         3.9693 
  25   0.0000       0.146142         3.9767 
  26   0.0000       0.168614         4.5882 
  27   0.0000       0.208360         5.6698 
  28   0.0000       0.222304         6.0492 
  29   0.0000       0.222449         6.0531 
  30   0.0000       0.251993         6.8571 
  31   0.0000       0.252139         6.8610 
  32   0.0000       0.300652         8.1812 
  33   0.0000       0.300692         8.1822 
  34   0.0000       0.326199         8.8763 
  35   0.0000       0.331483         9.0201 
  36   0.0000       0.549181        14.9440 
  37   0.0000       0.631869        17.1940 
  38   0.0000       0.644368        17.5341 
  39   0.0000       0.645451        17.5636 
  40   0.0000       0.658816        17.9273 
  41   0.0000       0.659488        17.9456 
  42   0.0000       0.691948        18.8289 
  43   0.0000       0.692188        18.8354 
  44   0.0000       0.701834        19.0979 
  45   0.0000       0.713202        19.4072 
  46   0.0000       0.738073        20.0840 
  47   0.0000       0.742553        20.2059 
  48   0.0000       0.742620        20.2077 
  49   0.0000       0.851016        23.1573 
  50   0.0000       0.867757        23.6129 
  51   0.0000       0.996469        27.1153 
  52   0.0000       0.996578        27.1183 
  53   0.0000       1.002616        27.2826 
  54   0.0000       1.002801        27.2876 
  55   0.0000       1.021882        27.8068 
  56   0.0000       1.049420        28.5562 
  57   0.0000       1.049480        28.5578 
  58   0.0000       1.056886        28.7593 
  59   0.0000       1.057073        28.7644 
  60   0.0000       1.064347        28.9624 
  61   0.0000       1.064522        28.9671 
  62   0.0000       1.072026        29.1713 
  63   0.0000       1.250706        34.0334 
  64   0.0000       1.250749        34.0346 
  65   0.0000       1.269787        34.5527 
  66   0.0000       1.576635        42.9024 
  67   0.0000       1.595045        43.4034 
  68   0.0000       1.595420        43.4136 
  69   0.0000       1.598861        43.5072 
  70   0.0000       1.657896        45.1136 
  71   0.0000       1.674309        45.5603 
  72   0.0000       1.674725        45.5716 
  73   0.0000       1.745231        47.4902 
  74   0.0000       1.745534        47.4984 
  75   0.0000       1.790339        48.7176 
  76   0.0000       1.790816        48.7306 
  77   0.0000       1.904608        51.8270 
  78   0.0000       1.916578        52.1527 
  79   0.0000       1.983691        53.9790 
  80   0.0000       1.983862        53.9836 
  81   0.0000       2.107536        57.3490 
  82   0.0000       2.107919        57.3594 
  83   0.0000       2.128161        57.9102 
  84   0.0000       2.220057        60.4108 
  85   0.0000       2.231559        60.7238 
  86   0.0000       2.231741        60.7287 
  87   0.0000       2.328253        63.3550 
  88   0.0000       2.328357        63.3578 
  89   0.0000       2.401115        65.3377 
  90   0.0000       2.525487        68.7220 
  91   0.0000       2.525642        68.7262 
  92   0.0000       2.526164        68.7404 
  93   0.0000       2.526454        68.7483 
  94   0.0000       2.629407        71.5498 
  95   0.0000       2.636394        71.7399 

                    ********************************
                    * MULLIKEN POPULATION ANALYSIS *
                    ********************************

-----------------------
MULLIKEN ATOMIC CHARGES
-----------------------
   0 C :   -0.194251
   1 H :    0.193421
   2 C :   -0.192805
   3 H :    0.192794
   4 C :   -0.191841
   5 H :    0.192673
   6 C :   -0.194250
   7 H :    0.193421
   8 C :   -0.192812
   9 H :    0.192794
  10 C :   -0.191817
  11 H :    0.192675
Sum of atomic charges:   -0.0000000

--------------------------------
MULLIKEN REDUCED ORBITAL CHARGES
--------------------------------
  0 C s       :     3.397245  s :     3.397245
      pz      :     0.953334  p :     2.775174
      px      :     0.954875
      py      :     0.866964
      dz2     :     0.002200  d :     0.021832
      dxz     :     0.001608
      dyz     :     0.002675
      dx2y2   :     0.010676
      dxy     :     0.004674
  1 H s       :     0.806579  s :     0.806579
  2 C s       :     3.397633  s :     3.397633
      pz      :     0.953114  p :     2.773367
      px      :     0.894139
      py      :     0.926114
      dz2     :     0.002203  d :     0.021805
      dxz     :     0.002350
      dyz     :     0.001938
      dx2y2   :     0.005343
      dxy     :     0.009971
  3 H s       :     0.807206  s :     0.807206
  4 C s       :     3.397627  s :     3.397627
      pz      :     0.953251  p :     2.772382
      px      :     0.881634
      py      :     0.937497
      dz2     :     0.002204  d :     0.021832
      dxz     :     0.002489
      dyz     :     0.001801
      dx2y2   :     0.006981
      dxy     :     0.008358
  5 H s       :     0.807327  s :     0.807327
  6 C s       :     3.397272  s :     3.397272
      pz      :     0.953321  p :     2.775145
      px      :     0.954874
      py      :     0.866950
      dz2     :     0.002199  d :     0.021834
      dxz     :     0.001610
      dyz     :     0.002676
      dx2y2   :     0.010676
      dxy     :     0.004673
  7 H s       :     0.806579  s :     0.806579
  8 C s       :     3.397624  s :     3.397624
      pz      :     0.953129  p :     2.773384
      px      :     0.894119
      py      :     0.926135
      dz2     :     0.002203  d :     0.021804
      dxz     :     0.002349
      dyz     :     0.001938
      dx2y2   :     0.005345
      dxy     :     0.009970
  9 H s       :     0.807206  s :     0.807206
 10 C s       :     3.397588  s :     3.397588
      pz      :     0.953240  p :     2.772400
      px      :     0.881656
      py      :     0.937504
      dz2     :     0.002204  d :     0.021829
      dxz     :     0.002487
      dyz     :     0.001798
      dx2y2   :     0.006981
      dxy     :     0.008359
 11 H s       :     0.807325  s :     0.807325


                     *******************************
                     * LOEWDIN POPULATION ANALYSIS *
                     *******************************

----------------------
LOEWDIN ATOMIC CHARGES
----------------------
   0 C :   -0.146638
   1 H :    0.146301
   2 C :   -0.146190
   3 H :    0.146231
   4 C :   -0.145719
   5 H :    0.146003
   6 C :   -0.146641
   7 H :    0.146300
   8 C :   -0.146196
   9 H :    0.146232
  10 C :   -0.145688
  11 H :    0.146005

-------------------------------
LOEWDIN REDUCED ORBITAL CHARGES
-------------------------------
  0 C s       :     3.138530  s :     3.138530
      pz      :     0.959175  p :     2.971036
      px      :     1.049043
      py      :     0.962817
      dz2     :     0.002437  d :     0.037072
      dxz     :     0.002659
      dyz     :     0.004176
      dx2y2   :     0.018033
      dxy     :     0.009766
  1 H s       :     0.853699  s :     0.853699
  2 C s       :     3.138709  s :     3.138709
      pz      :     0.958918  p :     2.970412
      px      :     0.989972
      py      :     1.021522
      dz2     :     0.002439  d :     0.037069
      dxz     :     0.003710
      dyz     :     0.003136
      dx2y2   :     0.010702
      dxy     :     0.017082
  3 H s       :     0.853769  s :     0.853769
  4 C s       :     3.138682  s :     3.138682
      pz      :     0.959117  p :     2.969921
      px      :     0.978124
      py      :     1.032680
      dz2     :     0.002440  d :     0.037116
      dxz     :     0.003910
      dyz     :     0.002938
      dx2y2   :     0.012968
      dxy     :     0.014859
  5 H s       :     0.853997  s :     0.853997
  6 C s       :     3.138547  s :     3.138547
      pz      :     0.959171  p :     2.971020
      px      :     1.049043
      py      :     0.962806
      dz2     :     0.002437  d :     0.037074
      dxz     :     0.002661
      dyz     :     0.004178
      dx2y2   :     0.018033
      dxy     :     0.009765
  7 H s       :     0.853700  s :     0.853700
  8 C s       :     3.138703  s :     3.138703
      pz      :     0.958930  p :     2.970425
      px      :     0.989949
      py      :     1.021546
      dz2     :     0.002439  d :     0.037068
      dxz     :     0.003709
      dyz     :     0.003136
      dx2y2   :     0.010704
      dxy     :     0.017080
  9 H s       :     0.853768  s :     0.853768
 10 C s       :     3.138655  s :     3.138655
      pz      :     0.959092  p :     2.969921
      px      :     0.978142
      py      :     1.032687
      dz2     :     0.002441  d :     0.037112
      dxz     :     0.003908
      dyz     :     0.002934
      dx2y2   :     0.012968
      dxy     :     0.014861
 11 H s       :     0.853995  s :     0.853995


                      *****************************
                      * MAYER POPULATION ANALYSIS *
                      *****************************

  NA   - Mulliken gross atomic population
  ZA   - Total nuclear charge
  QA   - Mulliken gross atomic charge
  VA   - Mayer's total valence
  BVA  - Mayer's bonded valence
  FA   - Mayer's free valence

  ATOM       NA         ZA         QA         VA         BVA        FA
  0 C      6.1943     6.0000    -0.1943     3.7745     3.7745    -0.0000
  1 H      0.8066     1.0000     0.1934     0.9204     0.9204     0.0000
  2 C      6.1928     6.0000    -0.1928     3.7739     3.7739     0.0000
  3 H      0.8072     1.0000     0.1928     0.9207     0.9207     0.0000
  4 C      6.1918     6.0000    -0.1918     3.7738     3.7738     0.0000
  5 H      0.8073     1.0000     0.1927     0.9206     0.9206     0.0000
  6 C      6.1943     6.0000    -0.1943     3.7744     3.7744     0.0000
  7 H      0.8066     1.0000     0.1934     0.9204     0.9204     0.0000
  8 C      6.1928     6.0000    -0.1928     3.7739     3.7739    -0.0000
  9 H      0.8072     1.0000     0.1928     0.9207     0.9207     0.0000
 10 C      6.1918     6.0000    -0.1918     3.7739     3.7739    -0.0000
 11 H      0.8073     1.0000     0.1927     0.9206     0.9206     0.0000

  Mayer bond orders larger than 0.1
B(  0-C ,  1-H ) :   0.8994 B(  0-C ,  2-C ) :   1.3548 B(  0-C ,  6-C ) :   0.1033 
B(  0-C , 10-C ) :   1.3549 B(  2-C ,  3-H ) :   0.8995 B(  2-C ,  4-C ) :   1.3545 
B(  2-C ,  8-C ) :   0.1031 B(  4-C ,  5-H ) :   0.8995 B(  4-C ,  6-C ) :   1.3548 
B(  4-C , 10-C ) :   0.1031 B(  6-C ,  7-H ) :   0.8994 B(  6-C ,  8-C ) :   1.3548 
B(  8-C ,  9-H ) :   0.8995 B(  8-C , 10-C ) :   1.3545 B( 10-C , 11-H ) :   0.8995 


-------
TIMINGS
-------

Total SCF time: 0 days 0 hours 0 min 23 sec 

Total time                  ....      23.376 sec
Sum of individual times     ....      23.257 sec  ( 99.5%)

Fock matrix formation       ....      21.752 sec  ( 93.1%)
  XC integration            ....       2.230 sec  ( 10.3% of F)
    Basis function eval.    ....       1.135 sec  ( 50.9% of XC)
    Density eval.           ....       0.176 sec  (  7.9% of XC)
    XC-Functional eval.     ....       0.445 sec  ( 20.0% of XC)
    XC-Potential eval.      ....       0.276 sec  ( 12.4% of XC)
Diagonalization             ....       0.010 sec  (  0.0%)
Density matrix formation    ....       0.001 sec  (  0.0%)
Population analysis         ....       0.012 sec  (  0.0%)
Initial guess               ....       0.370 sec  (  1.6%)
Orbital Transformation      ....       0.000 sec  (  0.0%)
Orbital Orthonormalization  ....       0.000 sec  (  0.0%)
DIIS solution               ....       0.000 sec  (  0.0%)
Grid generation             ....       1.112 sec  (  4.8%)


-------------------------------------------------------------------------------
                          DFT DISPERSION CORRECTION                            
                                                                               
                              DFTD3 V3.1  Rev 1                                
                              USING zero damping                               
-------------------------------------------------------------------------------
The omegaB97X-D3 functional is recognized. Fit by Chai et al.
Active option DFTDOPT                   ...         3   

molecular C6(AA) [au] = 1698.791344 


            DFT-D V3
 parameters
 s6 scaling factor         :     1.0000 
 rs6 scaling factor        :     1.2810 
 s8 scaling factor         :     1.0000 
 rs8 scaling factor        :     1.0940 
 Damping factor alpha6     :    14.0000 
 Damping factor alpha8     :    16.0000 
 ad hoc parameters k1-k3   :    16.0000     1.3333    -4.0000 

 Edisp/kcal,au: -1.474424756456  -0.002349645161 
 E6   /kcal   :  -0.587787631 
 E8   /kcal   :  -0.886637125 
 % E8         :  60.134443698 

-------------------------   ----------------
Dispersion correction           -0.002349645
-------------------------   ----------------


-------------------------   --------------------
FINAL SINGLE POINT ENERGY      -231.699986111665
-------------------------   --------------------


                            ***************************************
                            *     ORCA property calculations      *
                            ***************************************

                                    ---------------------
                                    Active property flags
                                    ---------------------
   (+) Dipole Moment


------------------------------------------------------------------------------
                       ORCA ELECTRIC PROPERTIES CALCULATION
------------------------------------------------------------------------------

Dipole Moment Calculation                       ... on
Quadrupole Moment Calculation                   ... off
Polarizability Calculation                      ... off
GBWName                                         ... Scan_15.gbw
Electron density file                           ... Scan_15.scfp.tmp

-------------
DIPOLE MOMENT
-------------
                                X             Y             Z
Electronic contribution:      0.00002      -0.00003       0.00005
Nuclear contribution   :      0.00012      -0.00012      -0.00009
                        -----------------------------------------
Total Dipole Moment    :      0.00014      -0.00016      -0.00004
                        -----------------------------------------
Magnitude (a.u.)       :      0.00021
Magnitude (Debye)      :      0.00054


Timings for individual modules:

Sum of individual times         ...       23.729 sec (=   0.395 min)
GTO integral calculation        ...        0.330 sec (=   0.006 min)   1.4 %
SCF iterations                  ...       23.399 sec (=   0.390 min)  98.6 %
                             ****ORCA TERMINATED NORMALLY****
TOTAL RUN TIME: 0 days 0 hours 0 minutes 24 seconds 44 msec
