
                                 *****************
                                 * O   R   C   A *
                                 *****************

           --- An Ab Initio, DFT and Semiempirical electronic structure package ---

                  #######################################################
                  #                        -***-                        #
                  #  Department of molecular theory and spectroscopy    #
                  #              Directorship: Frank Neese              #
                  # Max Planck Institute for Chemical Energy Conversion #
                  #                  D-45470 Muelheim/Ruhr              #
                  #                       Germany                       #
                  #                                                     #
                  #                  All rights reserved                #
                  #                        -***-                        #
                  #######################################################


                         Program Version 4.0.0.2 - RELEASE -


 With contributions from (in alphabetic order):
   Daniel Aravena         : Magnetic Properties
   Michael Atanasov       : Ab Initio Ligand Field Theory
   Ute Becker             : Parallelization
   Martin Brehm           : Molecular dynamics
   Dmytro Bykov           : SCF Hessian
   Vijay G. Chilkuri      : MRCI spin determinant printing
   Dipayan Datta          : RHF DLPNO-CCSD density
   Achintya Kumar Dutta   : EOM-CC, STEOM-CC
   Dmitry Ganyushin       : Spin-Orbit,Spin-Spin,Magnetic field MRCI
   Yang Guo               : DLPNO-NEVPT2, CIM, IAO-localization
   Andreas Hansen         : Spin unrestricted coupled pair/coupled cluster methods
   Lee Huntington         : MR-EOM, pCC
   Robert Izsak           : Overlap fitted RIJCOSX, COSX-SCS-MP3, EOM
   Christian Kollmar      : KDIIS, OOCD, Brueckner-CCSD(T), CCSD density
   Simone Kossmann        : Meta GGA functionals, TD-DFT gradient, OOMP2, MP2 Hessian
   Martin Krupicka        : AUTO-CI
   Dagmar Lenk            : GEPOL surface
   Dimitrios Liakos       : Extrapolation schemes; parallel MDCI
   Dimitrios Manganas     : ROCIS; embedding schemes
   Dimitrios Pantazis     : SARC Basis sets
   Taras Petrenko         : DFT Hessian,TD-DFT gradient, ASA, ECA, R-Raman, ABS, FL, XAS/XES, NRVS
   Peter Pinski           : DLPNO-MP2
   Christoph Reimann      : Effective Core Potentials
   Marius Retegan         : Local ZFS, SOC
   Christoph Riplinger    : Optimizer, TS searches, QM/MM, DLPNO-CCSD(T), (RO)-DLPNO pert. Triples
   Tobias Risthaus        : Range-separated hybrids, TD-DFT gradient, RPA, STAB
   Michael Roemelt        : Restricted open shell CIS
   Masaaki Saitow         : Open-shell DLPNO
   Barbara Sandhoefer     : DKH picture change effects
   Kantharuban Sivalingam : CASSCF convergence, NEVPT2, FIC-MRCI
   Georgi Stoychev        : AutoAux
   Boris Wezisla          : Elementary symmetry handling
   Frank Wennmohs         : Technical directorship


 We gratefully acknowledge several colleagues who have allowed us to
 interface, adapt or use parts of their codes:
   Stefan Grimme, W. Hujo, H. Kruse,             : VdW corrections, initial TS optimization,
                  C. Bannwarth                     DFT functionals, gCP, sTDA/sTD-DF
   Ed Valeev                                     : LibInt (2-el integral package), F12 methods
   Garnet Chan, S. Sharma, J. Yang, R. Olivares  : DMRG
   Ulf Ekstrom                                   : XCFun DFT Library
   Mihaly Kallay                                 : mrcc  (arbitrary order and MRCC methods)
   Jiri Pittner, Ondrej Demel                    : Mk-CCSD
   Frank Weinhold                                : gennbo (NPA and NBO analysis)
   Christopher J. Cramer and Donald G. Truhlar   : smd solvation model


 Your calculation uses the libint2 library for the computation of 2-el integrals
 For citations please refer to: http://libint.valeyev.net

 This ORCA versions uses:
   CBLAS   interface :  Fast vector & matrix operations
   LAPACKE interface :  Fast linear algebra routines
   SCALAPACK package :  Parallel linear algebra routines


Your calculation utilizes the atom-pairwise dispersion correction
with the zero-damping scheme (D30)
Cite in your paper:
S.Grimme, J.Antony, S.Ehrlich and H.Krieg, J.Chem.Phys., 132, (2010), 154104 
   

XCFun DFT library Copyright 2009-2010 Ulf Ekstrom and contributors.
See http://admol.org/xcfun for more information. This is free soft-
ware; see the source code for copying conditions. There is ABSOLUTELY
NO WARRANTY; not even for MERCHANTABILITY or FITNESS FOR A PARTICULAR
PURPOSE. For details see the documentation. Scientific users of this 
library should cite U. Ekstrom, L. Visscher, R. Bast, A. J. Thorvald-
sen and K. Ruud; J.Chem.Theor.Comp. 2010, DOI: 10.1021/ct100117s
XCFun Version 0.99 
Your calculation utilizes the basis: 6-31G(d)
   H-He, Li-Ne : W. J. Hehre, R. Ditchfield and J.A. Pople, J. Chem. Phys. 56, 2257 (1972).
                 Note: He and Ne are unpublished basis sets taken from the Gaussian program.
                 Note: Li and B from J. D. Dill and J. A. Pople, J. Chem. Phys. 62, 2921 (1975).
   Na - Ar     : M. M. Francl, W. J. Pietro, W. J. Hehre, J. S. Binkley, M. S. Gordon, 
                 D. J. DeFrees and J. A. Pople, J. Chem. Phys. 77, 3654 (1982).
   K - Zn      : V. A. Rassolov, J. A. Pople, M. A. Ratner, and T. L. Windus, J. Chem. Phys. 109, 1223 (1998).

================================================================================
                                        WARNINGS
                       Please study these warnings very carefully!
================================================================================

Warning: TCutStore was < 0. Adjusted to Thresh (uncritical)

INFO   : the flag for use of LIBINT has been found!

================================================================================
                                       INPUT FILE
================================================================================
NAME = initial16.inp
|  1> ! WB97X-D3 6-31G(d) VerySlowConv
|  2> ! KDIIS NOSOSCF
|  3> %base "Scan_16"
|  4> 
|  5> %scf
|  6> maxiter 999
|  7> end
|  8> 
|  9> * xyz 0 1
| 10> C          1.980017234389   -2.884657280427    0.203414275548
| 11> H          2.995812058696   -2.962453997734   -0.133556537225
| 12> C          1.177671276255   -1.211563688801   -0.203242939291
| 13> H          1.752852033273   -0.370702893256    0.133759780484
| 14> C         -0.672510275162   -1.069972519647    0.203135207657
| 15> H         -1.113106536868   -0.151319027694   -0.133628953036
| 16> C         -1.720235683034   -2.601425835706   -0.203406877452
| 17> H         -2.736074911187   -2.523542918254    0.133423261024
| 18> C         -0.917827440187   -4.274422713514    0.203504722341
| 19> H         -1.493112474467   -5.115338368395   -0.133178618997
| 20> C          0.932238099332   -4.416005914271   -0.203388630414
| 21> H          1.372886618959   -5.334704842301    0.133165309359
| 22> **                         ****END OF INPUT****
================================================================================

                       ****************************
                       * Single Point Calculation *
                       ****************************

---------------------------------
CARTESIAN COORDINATES (ANGSTROEM)
---------------------------------
  C      1.980017   -2.884657    0.203414
  H      2.995812   -2.962454   -0.133557
  C      1.177671   -1.211564   -0.203243
  H      1.752852   -0.370703    0.133760
  C     -0.672510   -1.069973    0.203135
  H     -1.113107   -0.151319   -0.133629
  C     -1.720236   -2.601426   -0.203407
  H     -2.736075   -2.523543    0.133423
  C     -0.917827   -4.274423    0.203505
  H     -1.493112   -5.115338   -0.133179
  C      0.932238   -4.416006   -0.203389
  H      1.372887   -5.334705    0.133165

----------------------------
CARTESIAN COORDINATES (A.U.)
----------------------------
  NO LB      ZA    FRAG     MASS         X           Y           Z
   0 C     6.0000    0    12.011    3.741690   -5.451212    0.384397
   1 H     1.0000    0     1.008    5.661264   -5.598227   -0.252385
   2 C     6.0000    0    12.011    2.225476   -2.289524   -0.384073
   3 H     1.0000    0     1.008    3.312410   -0.700527    0.252769
   4 C     6.0000    0    12.011   -1.270860   -2.021955    0.383870
   5 H     1.0000    0     1.008   -2.103467   -0.285952   -0.252522
   6 C     6.0000    0    12.011   -3.250774   -4.915982   -0.384383
   7 H     1.0000    0     1.008   -5.170432   -4.768805    0.252133
   8 C     6.0000    0    12.011   -1.734443   -8.077488    0.384568
   9 H     1.0000    0     1.008   -2.821574   -9.666589   -0.251671
  10 C     6.0000    0    12.011    1.761675   -8.345042   -0.384349
  11 H     1.0000    0     1.008    2.594380  -10.081131    0.251646

--------------------------------
INTERNAL COORDINATES (ANGSTROEM)
--------------------------------
 C      0   0   0     0.000000000000     0.00000000     0.00000000
 H      1   0   0     1.073052087726     0.00000000     0.00000000
 C      1   2   0     1.899571344608   113.35793643     0.00000000
 H      3   1   2     1.073056668524   113.36247924   307.17096921
 C      3   1   2     1.899569169760   115.54719647   173.92185258
 H      5   3   1     1.073060764372   113.36554965   186.05755416
 C      5   3   1     1.899566860243   115.55267785   319.32312184
 H      7   5   3     1.073056209372   113.35674985   173.93408687
 C      7   5   3     1.899566948383   115.54486553    40.68523983
 H      9   7   5     1.073055302221   113.36058358   186.05514149
 C      9   7   5     1.899565872448   115.54171276   319.30043530
 H     11   9   7     1.073055167543   113.36439630   173.96389832

---------------------------
INTERNAL COORDINATES (A.U.)
---------------------------
 C      0   0   0     0.000000000000     0.00000000     0.00000000
 H      1   0   0     2.027774573235     0.00000000     0.00000000
 C      1   2   0     3.589669613153   113.35793643     0.00000000
 H      3   1   2     2.027783229689   113.36247924   307.17096921
 C      3   1   2     3.589665503287   115.54719647   173.92185258
 H      5   3   1     2.027790969719   113.36554965   186.05755416
 C      5   3   1     3.589661138932   115.55267785   319.32312184
 H      7   5   3     2.027782362016   113.35674985   173.93408687
 C      7   5   3     3.589661305493   115.54486553    40.68523983
 H      9   7   5     2.027780647750   113.36058358   186.05514149
 C      9   7   5     3.589659272270   115.54171276   319.30043530
 H     11   9   7     2.027780393244   113.36439630   173.96389832

---------------------
BASIS SET INFORMATION
---------------------
There are 2 groups of distinct atoms

 Group   1 Type C   : 10s4p1d contracted to 3s2p1d pattern {631/31/1}
 Group   2 Type H   : 4s contracted to 2s pattern {31}

Atom   0C    basis set group =>   1
Atom   1H    basis set group =>   2
Atom   2C    basis set group =>   1
Atom   3H    basis set group =>   2
Atom   4C    basis set group =>   1
Atom   5H    basis set group =>   2
Atom   6C    basis set group =>   1
Atom   7H    basis set group =>   2
Atom   8C    basis set group =>   1
Atom   9H    basis set group =>   2
Atom  10C    basis set group =>   1
Atom  11H    basis set group =>   2
------------------------------------------------------------------------------
                           ORCA GTO INTEGRAL CALCULATION
------------------------------------------------------------------------------

                         BASIS SET STATISTICS AND STARTUP INFO

 # of primitive gaussian shells          ...  114
 # of primitive gaussian functions       ...  186
 # of contracted shells                  ...   48
 # of contracted basis functions         ...   96
 Highest angular momentum                ...    2
 Maximum contraction depth               ...    6
 Integral package used                   ... LIBINT
 Integral threshhold            Thresh   ...  1.000e-10
 Primitive cut-off              TCut     ...  1.000e-11


------------------------------ INTEGRAL EVALUATION ----------------------------


 * One electron integrals 
 Pre-screening matrix                    ... done
 Shell pair data                         ... done (   0.001 sec)

-------------------------------------------------------------------------------
                                 ORCA SCF
-------------------------------------------------------------------------------

------------
SCF SETTINGS
------------
Hamiltonian:
 Density Functional     Method          .... DFT(GTOs)
 Exchange Functional    Exchange        .... WB97X-D3
 Correlation Functional Correlation     .... WB97X-D3
 Gradients option       PostSCFGGA      .... off
 Hybrid DFT is turned on
   Fraction HF Exchange ScalHFX         ....  0.195728
   Scaling of DF-GGA-X  ScalDFX         ....  0.000000
   Scaling of DF-GGA-C  ScalDFC         ....  1.000000
   Scaling of DF-LDA-C  ScalLDAC        ....  1.000000
   Perturbative correction              ....  0.000000
 Long-range corrected/Screened/Range-Separated Hybrid DFT is turned on
   Amount of maximum screened exact exchange              ....  0.804272
   Range separation parameter mu (erf(mu*r12)/r12)        ....  0.250000


General Settings:
 Integral files         IntName         .... Scan_16
 Hartree-Fock type      HFTyp           .... RHF
 Total Charge           Charge          ....    0
 Multiplicity           Mult            ....    1
 Number of Electrons    NEL             ....   42
 Basis Dimension        Dim             ....   96
 Nuclear Repulsion      ENuc            ....    159.1294350926 Eh

Convergence Acceleration:
 DIIS                   CNVDIIS         .... on
   Start iteration      DIISMaxIt       ....     0
   Startup error        DIISStart       ....  0.200000
   # of expansion vecs  DIISMaxEq       ....     5
   Bias factor          DIISBfac        ....   1.050
   Max. coefficient     DIISMaxC        ....  10.000
 Newton-Raphson         CNVNR           .... off
 SOSCF                  CNVSOSCF        .... off
 Level Shifting         CNVShift        .... off
 Zerner damping         CNVZerner       .... off
 Static damping         CNVDamp         .... off
 Fernandez-Rico         CNVRico         .... off

SCF Procedure:
 Maximum # iterations   MaxIter         ....   999
 SCF integral mode      SCFMode         .... Direct
   Integral package                     .... LIBINT
 Reset frequeny         DirectResetFreq ....    20
 Integral Threshold     Thresh          ....  1.000e-10 Eh
 Primitive CutOff       TCut            ....  1.000e-11 Eh

Convergence Tolerance:
 Convergence Check Mode ConvCheckMode   .... All-Criteria
 Convergence forced     ConvForced      .... 0
 Energy Change          TolE            ....  1.000e-06 Eh
 Max Density Change     TolMaxP         ....  1.000e-05
 RMS Density Change     TolRMSP         ....  1.000e-06
 DIIS Error             TolErr          ....  1.000e-06


Diagonalization of the overlap matrix:
Smallest eigenvalue                        ... 1.696e-02
Time for diagonalization                   ...    0.002 sec
Threshold for overlap eigenvalues          ... 1.000e-08
Number of eigenvalues below threshold      ... 0
Time for construction of square roots      ...    0.007 sec
Total time needed                          ...    0.009 sec

-------------------
DFT GRID GENERATION
-------------------

General Integration Accuracy     IntAcc      ...  4.340
Radial Grid Type                 RadialGrid  ... Gauss-Chebyshev
Angular Grid (max. acc.)         AngularGrid ... Lebedev-110
Angular grid pruning method      GridPruning ... 3 (G Style)
Weight generation scheme         WeightScheme... Becke
Basis function cutoff            BFCut       ...    1.0000e-10
Integration weight cutoff        WCut        ...    1.0000e-14
Grids for H and He will be reduced by one unit

# of grid points (after initial pruning)     ...  14700 (   0.0 sec)
# of grid points (after weights+screening)   ...  13986 (   0.0 sec)
nearest neighbour list constructed           ...    0.0 sec
Grid point re-assignment to atoms done       ...    0.0 sec
Grid point division into batches done        ...    0.0 sec
Reduced shell lists constructed in    0.2 sec

Total number of grid points                  ...    13986
Total number of batches                      ...      222
Average number of points per batch           ...       63
Average number of grid points per atom       ...     1166
Average number of shells per batch           ...    33.79 (70.39%)
Average number of basis functions per batch  ...    68.87 (71.73%)
Average number of large shells per batch     ...    26.37 (78.05%)
Average number of large basis fcns per batch ...    54.13 (78.60%)
Maximum spatial batch extension              ...  17.76, 20.42, 25.60 au
Average spatial batch extension              ...   3.99,  4.39,  4.94 au

Time for grid setup =    0.240 sec

------------------------------
INITIAL GUESS: MODEL POTENTIAL
------------------------------
Loading Hartree-Fock densities                     ... done
Calculating cut-offs                               ... done
Setting up the integral package                    ... done
Initializing the effective Hamiltonian             ... done
Starting the Coulomb interaction                   ... done (   0.1 sec)
Reading the grid                                   ... done
Mapping shells                                     ... done
Starting the XC term evaluation                    ... done (   0.2 sec)
  promolecular density results
     # of electrons  =     41.992338533
     EX              =    -31.834805760
     EC              =     -1.255203950
     EX+EC           =    -33.090009709
Transforming the Hamiltonian                       ... done (   0.0 sec)
Diagonalizing the Hamiltonian                      ... done (   0.0 sec)
Back transforming the eigenvectors                 ... done (   0.0 sec)
Now organizing SCF variables                       ... done
                      ------------------
                      INITIAL GUESS DONE (   0.6 sec)
                      ------------------
--------------
SCF ITERATIONS
--------------
ITER       Energy         Delta-E        Max-DP      RMS-DP      [F,P]   Gradient Norm
               ***  Starting incremental Fock matrix formation  ***
                             ****Resetting KDIIS****
                             ****Turning on KDIIS(Cayley)****
  0   -231.4844090797   0.000000000000 0.00427777  0.00033373  0.0344834   0.028867812
  1   -231.4896037354  -0.005194655678 0.00619016  0.00048505  0.0304279   0.025498103
  2   -231.4958332057  -0.006229470328 0.01068226  0.00085330  0.0246692   0.020622551
  3   -231.5035230003  -0.007689794603 0.01713192  0.00128947  0.0149457   0.012418929
  4   -231.5079137941  -0.004390793764 0.00066483  0.00003392  0.0004539   0.000383685
  5   -231.5079186895  -0.000004895392 0.00059830  0.00002906  0.0001448   0.000121064
  6   -231.5079197188  -0.000001029254 0.00007313  0.00000583  0.0000274   0.000029456
                          ***Energy convergence achieved***
  7   -231.5079197623  -0.000000043539 0.00002541  0.00000211  0.0000075   0.000007424
                           ***RMSP convergence achieved***

            ***Energy convergence in two consecutive cycles with***
                    ***'reasonable' density convergence***
                       *** signaling convergence ***

                    *** KDIIS BlockDiag ( 0.001 sec) ***

               *****************************************************
               *                     SUCCESS                       *
               *           SCF CONVERGED AFTER   8 CYCLES          *
               *****************************************************

Setting up the final grid:

General Integration Accuracy     IntAcc      ...  4.670
Radial Grid Type                 RadialGrid  ... Gauss-Chebyshev
Angular Grid (max. acc.)         AngularGrid ... Lebedev-302
Angular grid pruning method      GridPruning ... 3 (G Style)
Weight generation scheme         WeightScheme... Becke
Basis function cutoff            BFCut       ...    1.0000e-10
Integration weight cutoff        WCut        ...    1.0000e-14
Grids for H and He will be reduced by one unit

# of grid points (after initial pruning)     ...  57636 (   0.0 sec)
# of grid points (after weights+screening)   ...  54288 (   0.1 sec)
nearest neighbour list constructed           ...    0.0 sec
Grid point re-assignment to atoms done       ...    0.0 sec
Grid point division into batches done        ...    0.2 sec
Reduced shell lists constructed in    0.8 sec

Total number of grid points                  ...    54288
Total number of batches                      ...      854
Average number of points per batch           ...       63
Average number of grid points per atom       ...     4524
Average number of shells per batch           ...    30.42 (63.37%)
Average number of basis functions per batch  ...    61.84 (64.42%)
Average number of large shells per batch     ...    22.84 (75.07%)
Average number of large basis fcns per batch ...    46.64 (75.42%)
Maximum spatial batch extension              ...  19.21, 20.37, 21.94 au
Average spatial batch extension              ...   2.74,  2.82,  3.02 au

Final grid set up in    0.9 sec
Final integration                            ... done (   0.7 sec)
Change in XC energy                          ...    -0.001115171
Integrated number of electrons               ...    42.000011259
Previous integrated no of electrons          ...    41.999177157

----------------
TOTAL SCF ENERGY
----------------

Total Energy       :         -231.50903493 Eh           -6299.68111 eV

Components:
Nuclear Repulsion  :          159.12943509 Eh            4330.13207 eV
Electronic Energy  :         -390.63847003 Eh          -10629.81318 eV
One Electron Energy:         -625.19400086 Eh          -17012.39366 eV
Two Electron Energy:          234.55553083 Eh            6382.58048 eV

Virial components:
Potential Energy   :         -459.17606368 Eh          -12494.81592 eV
Kinetic Energy     :          227.66702874 Eh            6195.13481 eV
Virial Ratio       :            2.01687555


DFT components:
N(Alpha)           :       21.000005629627 electrons
N(Beta)            :       21.000005629627 electrons
N(Total)           :       42.000011259254 electrons
E(XC)              :      -22.953694290902 Eh       

---------------
SCF CONVERGENCE
---------------

  Last Energy change         ...   -1.0478e-09  Tolerance :   1.0000e-06
  Last MAX-Density change    ...    1.1614e-05  Tolerance :   1.0000e-05
  Last RMS-Density change    ...    5.7055e-07  Tolerance :   1.0000e-06
  Last DIIS Error            ...    6.9769e-06  Tolerance :   1.0000e-06

             **** THE GBW FILE WAS UPDATED (Scan_16.gbw) ****
             **** DENSITY FILE WAS UPDATED (Scan_16.scfp.tmp) ****
             **** ENERGY FILE WAS UPDATED (Scan_16.en.tmp) ****
----------------
ORBITAL ENERGIES
----------------

  NO   OCC          E(Eh)            E(eV) 
   0   2.0000     -10.376337      -282.3545 
   1   2.0000     -10.376306      -282.3536 
   2   2.0000     -10.376294      -282.3533 
   3   2.0000     -10.376286      -282.3531 
   4   2.0000     -10.376273      -282.3527 
   5   2.0000     -10.376257      -282.3523 
   6   2.0000      -0.821733       -22.3605 
   7   2.0000      -0.781674       -21.2704 
   8   2.0000      -0.781652       -21.2698 
   9   2.0000      -0.702512       -19.1163 
  10   2.0000      -0.702444       -19.1145 
  11   2.0000      -0.653065       -17.7708 
  12   2.0000      -0.523576       -14.2472 
  13   2.0000      -0.464342       -12.6354 
  14   2.0000      -0.464285       -12.6338 
  15   2.0000      -0.411858       -11.2072 
  16   2.0000      -0.402932       -10.9643 
  17   2.0000      -0.402855       -10.9622 
  18   2.0000      -0.369251       -10.0478 
  19   2.0000      -0.296963        -8.0808 
  20   2.0000      -0.296848        -8.0776 
  21   0.0000      -0.026459        -0.7200 
  22   0.0000      -0.026373        -0.7177 
  23   0.0000       0.049137         1.3371 
  24   0.0000       0.116409         3.1677 
  25   0.0000       0.116615         3.1732 
  26   0.0000       0.135481         3.6866 
  27   0.0000       0.180016         4.8985 
  28   0.0000       0.180146         4.9020 
  29   0.0000       0.212366         5.7788 
  30   0.0000       0.251982         6.8568 
  31   0.0000       0.252123         6.8606 
  32   0.0000       0.254943         6.9374 
  33   0.0000       0.281041         7.6475 
  34   0.0000       0.283226         7.7070 
  35   0.0000       0.283392         7.7115 
  36   0.0000       0.545862        14.8537 
  37   0.0000       0.611784        16.6475 
  38   0.0000       0.644342        17.5334 
  39   0.0000       0.645135        17.5550 
  40   0.0000       0.647116        17.6089 
  41   0.0000       0.647745        17.6260 
  42   0.0000       0.672232        18.2924 
  43   0.0000       0.683927        18.6106 
  44   0.0000       0.684396        18.6234 
  45   0.0000       0.702232        19.1087 
  46   0.0000       0.742358        20.2006 
  47   0.0000       0.742517        20.2049 
  48   0.0000       0.745449        20.2847 
  49   0.0000       0.805355        21.9148 
  50   0.0000       0.910524        24.7766 
  51   0.0000       0.975720        26.5507 
  52   0.0000       0.976503        26.5720 
  53   0.0000       0.976559        26.5735 
  54   0.0000       0.976865        26.5819 
  55   0.0000       1.001782        27.2599 
  56   0.0000       1.016286        27.6546 
  57   0.0000       1.016515        27.6608 
  58   0.0000       1.047452        28.5026 
  59   0.0000       1.047887        28.5145 
  60   0.0000       1.076554        29.2945 
  61   0.0000       1.087133        29.5824 
  62   0.0000       1.087417        29.5901 
  63   0.0000       1.195392        32.5283 
  64   0.0000       1.195427        32.5292 
  65   0.0000       1.234832        33.6015 
  66   0.0000       1.561525        42.4913 
  67   0.0000       1.605875        43.6981 
  68   0.0000       1.606082        43.7037 
  69   0.0000       1.631817        44.4040 
  70   0.0000       1.632261        44.4161 
  71   0.0000       1.677183        45.6385 
  72   0.0000       1.678977        45.6873 
  73   0.0000       1.697295        46.1857 
  74   0.0000       1.697396        46.1885 
  75   0.0000       1.813252        49.3411 
  76   0.0000       1.813569        49.3497 
  77   0.0000       1.835242        49.9395 
  78   0.0000       1.941378        52.8276 
  79   0.0000       1.941620        52.8342 
  80   0.0000       1.976057        53.7712 
  81   0.0000       1.988475        54.1092 
  82   0.0000       2.049733        55.7761 
  83   0.0000       2.049841        55.7790 
  84   0.0000       2.237050        60.8732 
  85   0.0000       2.237352        60.8815 
  86   0.0000       2.237453        60.8842 
  87   0.0000       2.241842        61.0036 
  88   0.0000       2.242023        61.0086 
  89   0.0000       2.259630        61.4877 
  90   0.0000       2.452083        66.7246 
  91   0.0000       2.452592        66.7384 
  92   0.0000       2.463290        67.0295 
  93   0.0000       2.463317        67.0303 
  94   0.0000       2.469058        67.1865 
  95   0.0000       2.500601        68.0448 

                    ********************************
                    * MULLIKEN POPULATION ANALYSIS *
                    ********************************

-----------------------
MULLIKEN ATOMIC CHARGES
-----------------------
   0 C :   -0.194596
   1 H :    0.193860
   2 C :   -0.192948
   3 H :    0.193248
   4 C :   -0.193028
   5 H :    0.193427
   6 C :   -0.194583
   7 H :    0.193860
   8 C :   -0.192938
   9 H :    0.193233
  10 C :   -0.192942
  11 H :    0.193407
Sum of atomic charges:   -0.0000000

--------------------------------
MULLIKEN REDUCED ORBITAL CHARGES
--------------------------------
  0 C s       :     3.505486  s :     3.505486
      pz      :     0.867052  p :     2.668842
      px      :     0.935017
      py      :     0.866773
      dz2     :     0.001321  d :     0.020268
      dxz     :     0.003626
      dyz     :     0.002673
      dx2y2   :     0.009376
      dxy     :     0.003271
  1 H s       :     0.806140  s :     0.806140
  2 C s       :     3.505493  s :     3.505493
      pz      :     0.866361  p :     2.667223
      px      :     0.888071
      py      :     0.912792
      dz2     :     0.001325  d :     0.020232
      dxz     :     0.002983
      dyz     :     0.003311
      dx2y2   :     0.003949
      dxy     :     0.008666
  3 H s       :     0.806752  s :     0.806752
  4 C s       :     3.505805  s :     3.505805
      pz      :     0.867337  p :     2.666940
      px      :     0.878177
      py      :     0.921426
      dz2     :     0.001325  d :     0.020283
      dxz     :     0.002857
      dyz     :     0.003461
      dx2y2   :     0.005619
      dxy     :     0.007021
  5 H s       :     0.806573  s :     0.806573
  6 C s       :     3.505465  s :     3.505465
      pz      :     0.867031  p :     2.668851
      px      :     0.935032
      py      :     0.866788
      dz2     :     0.001322  d :     0.020267
      dxz     :     0.003623
      dyz     :     0.002673
      dx2y2   :     0.009377
      dxy     :     0.003272
  7 H s       :     0.806140  s :     0.806140
  8 C s       :     3.505490  s :     3.505490
      pz      :     0.866282  p :     2.667215
      px      :     0.888127
      py      :     0.912806
      dz2     :     0.001326  d :     0.020233
      dxz     :     0.002983
      dyz     :     0.003308
      dx2y2   :     0.003947
      dxy     :     0.008669
  9 H s       :     0.806767  s :     0.806767
 10 C s       :     3.505811  s :     3.505811
      pz      :     0.867224  p :     2.666847
      px      :     0.878174
      py      :     0.921450
      dz2     :     0.001326  d :     0.020284
      dxz     :     0.002859
      dyz     :     0.003458
      dx2y2   :     0.005618
      dxy     :     0.007023
 11 H s       :     0.806593  s :     0.806593


                     *******************************
                     * LOEWDIN POPULATION ANALYSIS *
                     *******************************

----------------------
LOEWDIN ATOMIC CHARGES
----------------------
   0 C :   -0.142607
   1 H :    0.142293
   2 C :   -0.141883
   3 H :    0.142191
   4 C :   -0.141885
   5 H :    0.141864
   6 C :   -0.142591
   7 H :    0.142294
   8 C :   -0.141887
   9 H :    0.142182
  10 C :   -0.141820
  11 H :    0.141850

-------------------------------
LOEWDIN REDUCED ORBITAL CHARGES
-------------------------------
  0 C s       :     3.248715  s :     3.248715
      pz      :     0.887282  p :     2.861775
      px      :     1.029158
      py      :     0.945336
      dz2     :     0.001400  d :     0.032117
      dxz     :     0.005536
      dyz     :     0.003788
      dx2y2   :     0.014909
      dxy     :     0.006483
  1 H s       :     0.857707  s :     0.857707
  2 C s       :     3.248837  s :     3.248837
      pz      :     0.886678  p :     2.860947
      px      :     0.971807
      py      :     1.002462
      dz2     :     0.001403  d :     0.032099
      dxz     :     0.004350
      dyz     :     0.004975
      dx2y2   :     0.007430
      dxy     :     0.013941
  3 H s       :     0.857809  s :     0.857809
  4 C s       :     3.248800  s :     3.248800
      pz      :     0.887616  p :     2.860916
      px      :     0.960245
      py      :     1.013055
      dz2     :     0.001403  d :     0.032169
      dxz     :     0.004120
      dyz     :     0.005228
      dx2y2   :     0.009742
      dxy     :     0.011676
  5 H s       :     0.858136  s :     0.858136
  6 C s       :     3.248697  s :     3.248697
      pz      :     0.887254  p :     2.861778
      px      :     1.029176
      py      :     0.945349
      dz2     :     0.001401  d :     0.032116
      dxz     :     0.005532
      dyz     :     0.003788
      dx2y2   :     0.014910
      dxy     :     0.006484
  7 H s       :     0.857706  s :     0.857706
  8 C s       :     3.248834  s :     3.248834
      pz      :     0.886602  p :     2.860952
      px      :     0.971865
      py      :     1.002485
      dz2     :     0.001404  d :     0.032100
      dxz     :     0.004351
      dyz     :     0.004970
      dx2y2   :     0.007428
      dxy     :     0.013947
  9 H s       :     0.857818  s :     0.857818
 10 C s       :     3.248804  s :     3.248804
      pz      :     0.887513  p :     2.860845
      px      :     0.960245
      py      :     1.013086
      dz2     :     0.001404  d :     0.032171
      dxz     :     0.004122
      dyz     :     0.005225
      dx2y2   :     0.009741
      dxy     :     0.011678
 11 H s       :     0.858150  s :     0.858150


                      *****************************
                      * MAYER POPULATION ANALYSIS *
                      *****************************

  NA   - Mulliken gross atomic population
  ZA   - Total nuclear charge
  QA   - Mulliken gross atomic charge
  VA   - Mayer's total valence
  BVA  - Mayer's bonded valence
  FA   - Mayer's free valence

  ATOM       NA         ZA         QA         VA         BVA        FA
  0 C      6.1946     6.0000    -0.1946     3.6082     3.6082    -0.0000
  1 H      0.8061     1.0000     0.1939     0.9134     0.9134    -0.0000
  2 C      6.1929     6.0000    -0.1929     3.6078     3.6078     0.0000
  3 H      0.8068     1.0000     0.1932     0.9137     0.9137     0.0000
  4 C      6.1930     6.0000    -0.1930     3.6076     3.6076    -0.0000
  5 H      0.8066     1.0000     0.1934     0.9134     0.9134     0.0000
  6 C      6.1946     6.0000    -0.1946     3.6082     3.6082     0.0000
  7 H      0.8061     1.0000     0.1939     0.9134     0.9134     0.0000
  8 C      6.1929     6.0000    -0.1929     3.6078     3.6078     0.0000
  9 H      0.8068     1.0000     0.1932     0.9137     0.9137    -0.0000
 10 C      6.1929     6.0000    -0.1929     3.6075     3.6075     0.0000
 11 H      0.8066     1.0000     0.1934     0.9134     0.9134    -0.0000

  Mayer bond orders larger than 0.1
B(  0-C ,  1-H ) :   0.8854 B(  0-C ,  2-C ) :   1.2642 B(  0-C , 10-C ) :   1.2643 
B(  2-C ,  3-H ) :   0.8856 B(  2-C ,  4-C ) :   1.2640 B(  4-C ,  5-H ) :   0.8854 
B(  4-C ,  6-C ) :   1.2643 B(  6-C ,  7-H ) :   0.8854 B(  6-C ,  8-C ) :   1.2643 
B(  8-C ,  9-H ) :   0.8856 B(  8-C , 10-C ) :   1.2640 B( 10-C , 11-H ) :   0.8854 


-------
TIMINGS
-------

Total SCF time: 0 days 0 hours 0 min 26 sec 

Total time                  ....      26.817 sec
Sum of individual times     ....      26.656 sec  ( 99.4%)

Fock matrix formation       ....      25.170 sec  ( 93.9%)
  XC integration            ....       2.620 sec  ( 10.4% of F)
    Basis function eval.    ....       1.316 sec  ( 50.2% of XC)
    Density eval.           ....       0.201 sec  (  7.7% of XC)
    XC-Functional eval.     ....       0.523 sec  ( 20.0% of XC)
    XC-Potential eval.      ....       0.298 sec  ( 11.4% of XC)
Diagonalization             ....       0.011 sec  (  0.0%)
Density matrix formation    ....       0.001 sec  (  0.0%)
Population analysis         ....       0.016 sec  (  0.1%)
Initial guess               ....       0.357 sec  (  1.3%)
Orbital Transformation      ....       0.000 sec  (  0.0%)
Orbital Orthonormalization  ....       0.000 sec  (  0.0%)
DIIS solution               ....       0.000 sec  (  0.0%)
Grid generation             ....       1.102 sec  (  4.1%)


-------------------------------------------------------------------------------
                          DFT DISPERSION CORRECTION                            
                                                                               
                              DFTD3 V3.1  Rev 1                                
                              USING zero damping                               
-------------------------------------------------------------------------------
The omegaB97X-D3 functional is recognized. Fit by Chai et al.
Active option DFTDOPT                   ...         3   

molecular C6(AA) [au] = 1798.710838 


            DFT-D V3
 parameters
 s6 scaling factor         :     1.0000 
 rs6 scaling factor        :     1.2810 
 s8 scaling factor         :     1.0000 
 rs8 scaling factor        :     1.0940 
 Damping factor alpha6     :    14.0000 
 Damping factor alpha8     :    16.0000 
 ad hoc parameters k1-k3   :    16.0000     1.3333    -4.0000 

 Edisp/kcal,au: -1.596906853913  -0.002544832787 
 E6   /kcal   :  -0.605234394 
 E8   /kcal   :  -0.991672460 
 % E8         :  62.099580659 

-------------------------   ----------------
Dispersion correction           -0.002544833
-------------------------   ----------------


-------------------------   --------------------
FINAL SINGLE POINT ENERGY      -231.511579767298
-------------------------   --------------------


                            ***************************************
                            *     ORCA property calculations      *
                            ***************************************

                                    ---------------------
                                    Active property flags
                                    ---------------------
   (+) Dipole Moment


------------------------------------------------------------------------------
                       ORCA ELECTRIC PROPERTIES CALCULATION
------------------------------------------------------------------------------

Dipole Moment Calculation                       ... on
Quadrupole Moment Calculation                   ... off
Polarizability Calculation                      ... off
GBWName                                         ... Scan_16.gbw
Electron density file                           ... Scan_16.scfp.tmp

-------------
DIPOLE MOMENT
-------------
                                X             Y             Z
Electronic contribution:      0.00008      -0.00011      -0.00004
Nuclear contribution   :     -0.00008      -0.00001      -0.00003
                        -----------------------------------------
Total Dipole Moment    :     -0.00001      -0.00012      -0.00006
                        -----------------------------------------
Magnitude (a.u.)       :      0.00013
Magnitude (Debye)      :      0.00034


Timings for individual modules:

Sum of individual times         ...       27.156 sec (=   0.453 min)
GTO integral calculation        ...        0.315 sec (=   0.005 min)   1.2 %
SCF iterations                  ...       26.842 sec (=   0.447 min)  98.8 %
                             ****ORCA TERMINATED NORMALLY****
TOTAL RUN TIME: 0 days 0 hours 0 minutes 27 seconds 488 msec
