
                                 *****************
                                 * O   R   C   A *
                                 *****************

           --- An Ab Initio, DFT and Semiempirical electronic structure package ---

                  #######################################################
                  #                        -***-                        #
                  #  Department of molecular theory and spectroscopy    #
                  #              Directorship: Frank Neese              #
                  # Max Planck Institute for Chemical Energy Conversion #
                  #                  D-45470 Muelheim/Ruhr              #
                  #                       Germany                       #
                  #                                                     #
                  #                  All rights reserved                #
                  #                        -***-                        #
                  #######################################################


                         Program Version 4.0.0.2 - RELEASE -


 With contributions from (in alphabetic order):
   Daniel Aravena         : Magnetic Properties
   Michael Atanasov       : Ab Initio Ligand Field Theory
   Ute Becker             : Parallelization
   Martin Brehm           : Molecular dynamics
   Dmytro Bykov           : SCF Hessian
   Vijay G. Chilkuri      : MRCI spin determinant printing
   Dipayan Datta          : RHF DLPNO-CCSD density
   Achintya Kumar Dutta   : EOM-CC, STEOM-CC
   Dmitry Ganyushin       : Spin-Orbit,Spin-Spin,Magnetic field MRCI
   Yang Guo               : DLPNO-NEVPT2, CIM, IAO-localization
   Andreas Hansen         : Spin unrestricted coupled pair/coupled cluster methods
   Lee Huntington         : MR-EOM, pCC
   Robert Izsak           : Overlap fitted RIJCOSX, COSX-SCS-MP3, EOM
   Christian Kollmar      : KDIIS, OOCD, Brueckner-CCSD(T), CCSD density
   Simone Kossmann        : Meta GGA functionals, TD-DFT gradient, OOMP2, MP2 Hessian
   Martin Krupicka        : AUTO-CI
   Dagmar Lenk            : GEPOL surface
   Dimitrios Liakos       : Extrapolation schemes; parallel MDCI
   Dimitrios Manganas     : ROCIS; embedding schemes
   Dimitrios Pantazis     : SARC Basis sets
   Taras Petrenko         : DFT Hessian,TD-DFT gradient, ASA, ECA, R-Raman, ABS, FL, XAS/XES, NRVS
   Peter Pinski           : DLPNO-MP2
   Christoph Reimann      : Effective Core Potentials
   Marius Retegan         : Local ZFS, SOC
   Christoph Riplinger    : Optimizer, TS searches, QM/MM, DLPNO-CCSD(T), (RO)-DLPNO pert. Triples
   Tobias Risthaus        : Range-separated hybrids, TD-DFT gradient, RPA, STAB
   Michael Roemelt        : Restricted open shell CIS
   Masaaki Saitow         : Open-shell DLPNO
   Barbara Sandhoefer     : DKH picture change effects
   Kantharuban Sivalingam : CASSCF convergence, NEVPT2, FIC-MRCI
   Georgi Stoychev        : AutoAux
   Boris Wezisla          : Elementary symmetry handling
   Frank Wennmohs         : Technical directorship


 We gratefully acknowledge several colleagues who have allowed us to
 interface, adapt or use parts of their codes:
   Stefan Grimme, W. Hujo, H. Kruse,             : VdW corrections, initial TS optimization,
                  C. Bannwarth                     DFT functionals, gCP, sTDA/sTD-DF
   Ed Valeev                                     : LibInt (2-el integral package), F12 methods
   Garnet Chan, S. Sharma, J. Yang, R. Olivares  : DMRG
   Ulf Ekstrom                                   : XCFun DFT Library
   Mihaly Kallay                                 : mrcc  (arbitrary order and MRCC methods)
   Jiri Pittner, Ondrej Demel                    : Mk-CCSD
   Frank Weinhold                                : gennbo (NPA and NBO analysis)
   Christopher J. Cramer and Donald G. Truhlar   : smd solvation model


 Your calculation uses the libint2 library for the computation of 2-el integrals
 For citations please refer to: http://libint.valeyev.net

 This ORCA versions uses:
   CBLAS   interface :  Fast vector & matrix operations
   LAPACKE interface :  Fast linear algebra routines
   SCALAPACK package :  Parallel linear algebra routines


Your calculation utilizes the atom-pairwise dispersion correction
with the zero-damping scheme (D30)
Cite in your paper:
S.Grimme, J.Antony, S.Ehrlich and H.Krieg, J.Chem.Phys., 132, (2010), 154104 
   

XCFun DFT library Copyright 2009-2010 Ulf Ekstrom and contributors.
See http://admol.org/xcfun for more information. This is free soft-
ware; see the source code for copying conditions. There is ABSOLUTELY
NO WARRANTY; not even for MERCHANTABILITY or FITNESS FOR A PARTICULAR
PURPOSE. For details see the documentation. Scientific users of this 
library should cite U. Ekstrom, L. Visscher, R. Bast, A. J. Thorvald-
sen and K. Ruud; J.Chem.Theor.Comp. 2010, DOI: 10.1021/ct100117s
XCFun Version 0.99 
Your calculation utilizes the basis: 6-31G(d)
   H-He, Li-Ne : W. J. Hehre, R. Ditchfield and J.A. Pople, J. Chem. Phys. 56, 2257 (1972).
                 Note: He and Ne are unpublished basis sets taken from the Gaussian program.
                 Note: Li and B from J. D. Dill and J. A. Pople, J. Chem. Phys. 62, 2921 (1975).
   Na - Ar     : M. M. Francl, W. J. Pietro, W. J. Hehre, J. S. Binkley, M. S. Gordon, 
                 D. J. DeFrees and J. A. Pople, J. Chem. Phys. 77, 3654 (1982).
   K - Zn      : V. A. Rassolov, J. A. Pople, M. A. Ratner, and T. L. Windus, J. Chem. Phys. 109, 1223 (1998).

================================================================================
                                        WARNINGS
                       Please study these warnings very carefully!
================================================================================

Warning: TCutStore was < 0. Adjusted to Thresh (uncritical)

INFO   : the flag for use of LIBINT has been found!

================================================================================
                                       INPUT FILE
================================================================================
NAME = initial17.inp
|  1> ! WB97X-D3 6-31G(d) VerySlowConv
|  2> ! KDIIS NOSOSCF
|  3> %base "Scan_17"
|  4> 
|  5> %scf
|  6> maxiter 999
|  7> end
|  8> 
|  9> * xyz 0 1
| 10> C          2.081844253679   -2.892546986093    0.248540496058
| 11> H          3.064210288603   -2.967650599808   -0.192715536178
| 12> C          1.235248691698   -1.127303746988   -0.248168458180
| 13> H          1.791636005211   -0.314097248046    0.192854060214
| 14> C         -0.716849811900   -0.978024671915    0.248513240588
| 15> H         -1.142732512858   -0.089462657420   -0.192808238603
| 16> C         -1.822050489337   -2.593717607097   -0.249558390862
| 17> H         -2.804201967147   -2.518441328325    0.192821937695
| 18> C         -0.975496832166   -4.358497526980    0.249499682263
| 19> H         -1.531706856237   -5.171744404167   -0.192411556277
| 20> C          0.976228450697   -4.508058875822   -0.248852793131
| 21> H          1.402480779756   -5.396564347339    0.192285556414
| 22> **                         ****END OF INPUT****
================================================================================

                       ****************************
                       * Single Point Calculation *
                       ****************************

---------------------------------
CARTESIAN COORDINATES (ANGSTROEM)
---------------------------------
  C      2.081844   -2.892547    0.248540
  H      3.064210   -2.967651   -0.192716
  C      1.235249   -1.127304   -0.248168
  H      1.791636   -0.314097    0.192854
  C     -0.716850   -0.978025    0.248513
  H     -1.142733   -0.089463   -0.192808
  C     -1.822050   -2.593718   -0.249558
  H     -2.804202   -2.518441    0.192822
  C     -0.975497   -4.358498    0.249500
  H     -1.531707   -5.171744   -0.192412
  C      0.976228   -4.508059   -0.248853
  H      1.402481   -5.396564    0.192286

----------------------------
CARTESIAN COORDINATES (A.U.)
----------------------------
  NO LB      ZA    FRAG     MASS         X           Y           Z
   0 C     6.0000    0    12.011    3.934115   -5.466122    0.469673
   1 H     1.0000    0     1.008    5.790518   -5.608047   -0.364180
   2 C     6.0000    0    12.011    2.334282   -2.130295   -0.468970
   3 H     1.0000    0     1.008    3.385701   -0.593558    0.364441
   4 C     6.0000    0    12.011   -1.354650   -1.848199    0.469622
   5 H     1.0000    0     1.008   -2.159451   -0.169060   -0.364355
   6 C     6.0000    0    12.011   -3.443176   -4.901416   -0.471597
   7 H     1.0000    0     1.008   -5.299174   -4.759164    0.364381
   8 C     6.0000    0    12.011   -1.843422   -8.236367    0.471486
   9 H     1.0000    0     1.008   -2.894506   -9.773181   -0.363605
  10 C     6.0000    0    12.011    1.844804   -8.518997   -0.470264
  11 H     1.0000    0     1.008    2.650305  -10.198029    0.363367

--------------------------------
INTERNAL COORDINATES (ANGSTROEM)
--------------------------------
 C      0   0   0     0.000000000000     0.00000000     0.00000000
 H      1   0   0     1.079532521673     0.00000000     0.00000000
 C      1   2   0     2.019784029047   109.98094712     0.00000000
 H      3   1   2     1.079524207367   109.99076437   294.51323362
 C      3   1   2     2.019818189812   114.15573920   170.31965031
 H      5   3   1     1.079668086300   109.97086023   189.67440123
 C      5   3   1     2.019902856144   114.14565211   313.82022651
 H      7   5   3     1.079809426984   109.93097834   170.27168082
 C      7   5   3     2.019940647753   114.11756287    46.24249231
 H      9   7   5     1.079826660571   109.93826978   189.66463892
 C      1   2   3     2.019818074429   109.98741254   126.53949083
 H     11   1   2     1.079692578646   109.96726363    65.50446896

---------------------------
INTERNAL COORDINATES (A.U.)
---------------------------
 C      0   0   0     0.000000000000     0.00000000     0.00000000
 H      1   0   0     2.040020818624     0.00000000     0.00000000
 C      1   2   0     3.816838664566   109.98094712     0.00000000
 H      3   1   2     2.040005106861   109.99076437   294.51323362
 C      3   1   2     3.816903219057   114.15573920   170.31965031
 H      5   3   1     2.040276998641   109.97086023   189.67440123
 C      5   3   1     3.817063215238   114.14565211   313.82022651
 H      7   5   3     2.040544093827   109.93097834   170.27168082
 C      7   5   3     3.817134631028   114.11756287    46.24249231
 H      9   7   5     2.040576660586   109.93826978   189.66463892
 C      1   2   3     3.816903001015   109.98741254   126.53949083
 H     11   1   2     2.040323282468   109.96726363    65.50446896

---------------------
BASIS SET INFORMATION
---------------------
There are 2 groups of distinct atoms

 Group   1 Type C   : 10s4p1d contracted to 3s2p1d pattern {631/31/1}
 Group   2 Type H   : 4s contracted to 2s pattern {31}

Atom   0C    basis set group =>   1
Atom   1H    basis set group =>   2
Atom   2C    basis set group =>   1
Atom   3H    basis set group =>   2
Atom   4C    basis set group =>   1
Atom   5H    basis set group =>   2
Atom   6C    basis set group =>   1
Atom   7H    basis set group =>   2
Atom   8C    basis set group =>   1
Atom   9H    basis set group =>   2
Atom  10C    basis set group =>   1
Atom  11H    basis set group =>   2
------------------------------------------------------------------------------
                           ORCA GTO INTEGRAL CALCULATION
------------------------------------------------------------------------------

                         BASIS SET STATISTICS AND STARTUP INFO

 # of primitive gaussian shells          ...  114
 # of primitive gaussian functions       ...  186
 # of contracted shells                  ...   48
 # of contracted basis functions         ...   96
 Highest angular momentum                ...    2
 Maximum contraction depth               ...    6
 Integral package used                   ... LIBINT
 Integral threshhold            Thresh   ...  1.000e-10
 Primitive cut-off              TCut     ...  1.000e-11


------------------------------ INTEGRAL EVALUATION ----------------------------


 * One electron integrals 
 Pre-screening matrix                    ... done
 Shell pair data                         ... done (   0.001 sec)

-------------------------------------------------------------------------------
                                 ORCA SCF
-------------------------------------------------------------------------------

------------
SCF SETTINGS
------------
Hamiltonian:
 Density Functional     Method          .... DFT(GTOs)
 Exchange Functional    Exchange        .... WB97X-D3
 Correlation Functional Correlation     .... WB97X-D3
 Gradients option       PostSCFGGA      .... off
 Hybrid DFT is turned on
   Fraction HF Exchange ScalHFX         ....  0.195728
   Scaling of DF-GGA-X  ScalDFX         ....  0.000000
   Scaling of DF-GGA-C  ScalDFC         ....  1.000000
   Scaling of DF-LDA-C  ScalLDAC        ....  1.000000
   Perturbative correction              ....  0.000000
 Long-range corrected/Screened/Range-Separated Hybrid DFT is turned on
   Amount of maximum screened exact exchange              ....  0.804272
   Range separation parameter mu (erf(mu*r12)/r12)        ....  0.250000


General Settings:
 Integral files         IntName         .... Scan_17
 Hartree-Fock type      HFTyp           .... RHF
 Total Charge           Charge          ....    0
 Multiplicity           Mult            ....    1
 Number of Electrons    NEL             ....   42
 Basis Dimension        Dim             ....   96
 Nuclear Repulsion      ENuc            ....    151.8271470333 Eh

Convergence Acceleration:
 DIIS                   CNVDIIS         .... on
   Start iteration      DIISMaxIt       ....     0
   Startup error        DIISStart       ....  0.200000
   # of expansion vecs  DIISMaxEq       ....     5
   Bias factor          DIISBfac        ....   1.050
   Max. coefficient     DIISMaxC        ....  10.000
 Newton-Raphson         CNVNR           .... off
 SOSCF                  CNVSOSCF        .... off
 Level Shifting         CNVShift        .... off
 Zerner damping         CNVZerner       .... off
 Static damping         CNVDamp         .... off
 Fernandez-Rico         CNVRico         .... off

SCF Procedure:
 Maximum # iterations   MaxIter         ....   999
 SCF integral mode      SCFMode         .... Direct
   Integral package                     .... LIBINT
 Reset frequeny         DirectResetFreq ....    20
 Integral Threshold     Thresh          ....  1.000e-10 Eh
 Primitive CutOff       TCut            ....  1.000e-11 Eh

Convergence Tolerance:
 Convergence Check Mode ConvCheckMode   .... All-Criteria
 Convergence forced     ConvForced      .... 0
 Energy Change          TolE            ....  1.000e-06 Eh
 Max Density Change     TolMaxP         ....  1.000e-05
 RMS Density Change     TolRMSP         ....  1.000e-06
 DIIS Error             TolErr          ....  1.000e-06


Diagonalization of the overlap matrix:
Smallest eigenvalue                        ... 2.113e-02
Time for diagonalization                   ...    0.002 sec
Threshold for overlap eigenvalues          ... 1.000e-08
Number of eigenvalues below threshold      ... 0
Time for construction of square roots      ...    0.005 sec
Total time needed                          ...    0.008 sec

-------------------
DFT GRID GENERATION
-------------------

General Integration Accuracy     IntAcc      ...  4.340
Radial Grid Type                 RadialGrid  ... Gauss-Chebyshev
Angular Grid (max. acc.)         AngularGrid ... Lebedev-110
Angular grid pruning method      GridPruning ... 3 (G Style)
Weight generation scheme         WeightScheme... Becke
Basis function cutoff            BFCut       ...    1.0000e-10
Integration weight cutoff        WCut        ...    1.0000e-14
Grids for H and He will be reduced by one unit

# of grid points (after initial pruning)     ...  14700 (   0.0 sec)
# of grid points (after weights+screening)   ...  14015 (   0.0 sec)
nearest neighbour list constructed           ...    0.0 sec
Grid point re-assignment to atoms done       ...    0.0 sec
Grid point division into batches done        ...    0.0 sec
Reduced shell lists constructed in    0.2 sec

Total number of grid points                  ...    14015
Total number of batches                      ...      228
Average number of points per batch           ...       61
Average number of grid points per atom       ...     1168
Average number of shells per batch           ...    32.98 (68.71%)
Average number of basis functions per batch  ...    67.01 (69.80%)
Average number of large shells per batch     ...    25.37 (76.92%)
Average number of large basis fcns per batch ...    51.96 (77.54%)
Maximum spatial batch extension              ...  19.00, 20.95, 22.45 au
Average spatial batch extension              ...   4.10,  4.41,  4.69 au

Time for grid setup =    0.252 sec

------------------------------
INITIAL GUESS: MODEL POTENTIAL
------------------------------
Loading Hartree-Fock densities                     ... done
Calculating cut-offs                               ... done
Setting up the integral package                    ... done
Initializing the effective Hamiltonian             ... done
Starting the Coulomb interaction                   ... done (   0.1 sec)
Reading the grid                                   ... done
Mapping shells                                     ... done
Starting the XC term evaluation                    ... done (   0.2 sec)
  promolecular density results
     # of electrons  =     41.992816588
     EX              =    -31.761973963
     EC              =     -1.235156110
     EX+EC           =    -32.997130073
Transforming the Hamiltonian                       ... done (   0.0 sec)
Diagonalizing the Hamiltonian                      ... done (   0.0 sec)
Back transforming the eigenvectors                 ... done (   0.0 sec)
Now organizing SCF variables                       ... done
                      ------------------
                      INITIAL GUESS DONE (   0.6 sec)
                      ------------------
--------------
SCF ITERATIONS
--------------
ITER       Energy         Delta-E        Max-DP      RMS-DP      [F,P]   Gradient Norm
               ***  Starting incremental Fock matrix formation  ***
                             ****Resetting KDIIS****
                             ****Turning on KDIIS(Cayley)****
  0   -231.3185279743   0.000000000000 0.00366768  0.00030776  0.0262521   0.026374343
  1   -231.3228345949  -0.004306620649 0.00559932  0.00046580  0.0226509   0.023461795
  2   -231.3283715316  -0.005536936736 0.01072814  0.00084103  0.0184230   0.019010650
  3   -231.3354438629  -0.007072331250 0.01714879  0.00128788  0.0110267   0.011415973
  4   -231.3395180421  -0.004074179230 0.00137326  0.00009095  0.0007564   0.000633693
  5   -231.3395388605  -0.000020818356 0.00075247  0.00004009  0.0001707   0.000150046
  6   -231.3395404662  -0.000001605676 0.00011216  0.00000732  0.0000442   0.000041478
                          ***Energy convergence achieved***
  7   -231.3395405163  -0.000000050183 0.00005925  0.00000364  0.0000407   0.000030290

            ***Energy convergence in two consecutive cycles with***
                    ***'reasonable' density convergence***
                       *** signaling convergence ***

                    *** KDIIS BlockDiag ( 0.002 sec) ***

               *****************************************************
               *                     SUCCESS                       *
               *           SCF CONVERGED AFTER   8 CYCLES          *
               *****************************************************

Setting up the final grid:

General Integration Accuracy     IntAcc      ...  4.670
Radial Grid Type                 RadialGrid  ... Gauss-Chebyshev
Angular Grid (max. acc.)         AngularGrid ... Lebedev-302
Angular grid pruning method      GridPruning ... 3 (G Style)
Weight generation scheme         WeightScheme... Becke
Basis function cutoff            BFCut       ...    1.0000e-10
Integration weight cutoff        WCut        ...    1.0000e-14
Grids for H and He will be reduced by one unit

# of grid points (after initial pruning)     ...  57636 (   0.0 sec)
# of grid points (after weights+screening)   ...  54384 (   0.1 sec)
nearest neighbour list constructed           ...    0.0 sec
Grid point re-assignment to atoms done       ...    0.0 sec
Grid point division into batches done        ...    0.2 sec
Reduced shell lists constructed in    0.8 sec

Total number of grid points                  ...    54384
Total number of batches                      ...      852
Average number of points per batch           ...       63
Average number of grid points per atom       ...     4532
Average number of shells per batch           ...    29.66 (61.80%)
Average number of basis functions per batch  ...    59.97 (62.47%)
Average number of large shells per batch     ...    21.87 (73.74%)
Average number of large basis fcns per batch ...    44.72 (74.57%)
Maximum spatial batch extension              ...  17.70, 21.13, 21.03 au
Average spatial batch extension              ...   2.77,  2.82,  3.01 au

Final grid set up in    0.9 sec
Final integration                            ... done (   0.7 sec)
Change in XC energy                          ...    -0.000587385
Integrated number of electrons               ...    42.000037942
Previous integrated no of electrons          ...    42.001844049

----------------
TOTAL SCF ENERGY
----------------

Total Energy       :         -231.34012793 Eh           -6295.08492 eV

Components:
Nuclear Repulsion  :          151.82714703 Eh            4131.42671 eV
Electronic Energy  :         -383.16727497 Eh          -10426.51163 eV
One Electron Energy:         -610.45296953 Eh          -16611.26980 eV
Two Electron Energy:          227.28569456 Eh            6184.75818 eV

Virial components:
Potential Energy   :         -459.06446689 Eh          -12491.77921 eV
Kinetic Energy     :          227.72433896 Eh            6196.69430 eV
Virial Ratio       :            2.01587792


DFT components:
N(Alpha)           :       21.000018971092 electrons
N(Beta)            :       21.000018971092 electrons
N(Total)           :       42.000037942184 electrons
E(XC)              :      -22.871323120942 Eh       

---------------
SCF CONVERGENCE
---------------

  Last Energy change         ...   -3.3132e-08  Tolerance :   1.0000e-06
  Last MAX-Density change    ...    2.3434e-05  Tolerance :   1.0000e-05
  Last RMS-Density change    ...    1.8306e-06  Tolerance :   1.0000e-06
  Last DIIS Error            ...    8.3093e-06  Tolerance :   1.0000e-06

             **** THE GBW FILE WAS UPDATED (Scan_17.gbw) ****
             **** DENSITY FILE WAS UPDATED (Scan_17.scfp.tmp) ****
             **** ENERGY FILE WAS UPDATED (Scan_17.en.tmp) ****
----------------
ORBITAL ENERGIES
----------------

  NO   OCC          E(Eh)            E(eV) 
   0   2.0000     -10.385079      -282.5924 
   1   2.0000     -10.385046      -282.5915 
   2   2.0000     -10.385045      -282.5914 
   3   2.0000     -10.385015      -282.5906 
   4   2.0000     -10.385000      -282.5902 
   5   2.0000     -10.384983      -282.5898 
   6   2.0000      -0.804345       -21.8873 
   7   2.0000      -0.771667       -20.9981 
   8   2.0000      -0.771625       -20.9970 
   9   2.0000      -0.704801       -19.1786 
  10   2.0000      -0.704710       -19.1761 
  11   2.0000      -0.664456       -18.0808 
  12   2.0000      -0.498891       -13.5755 
  13   2.0000      -0.447701       -12.1826 
  14   2.0000      -0.447673       -12.1818 
  15   2.0000      -0.392086       -10.6692 
  16   2.0000      -0.392052       -10.6683 
  17   2.0000      -0.389797       -10.6069 
  18   2.0000      -0.366098        -9.9620 
  19   2.0000      -0.295333        -8.0364 
  20   2.0000      -0.295267        -8.0346 
  21   0.0000      -0.044055        -1.1988 
  22   0.0000      -0.043981        -1.1968 
  23   0.0000       0.019196         0.5224 
  24   0.0000       0.089500         2.4354 
  25   0.0000       0.089756         2.4424 
  26   0.0000       0.103802         2.8246 
  27   0.0000       0.141259         3.8439 
  28   0.0000       0.141451         3.8491 
  29   0.0000       0.200768         5.4632 
  30   0.0000       0.215500         5.8640 
  31   0.0000       0.250282         6.8105 
  32   0.0000       0.250387         6.8134 
  33   0.0000       0.259755         7.0683 
  34   0.0000       0.270373         7.3572 
  35   0.0000       0.270437         7.3590 
  36   0.0000       0.547077        14.8867 
  37   0.0000       0.598246        16.2791 
  38   0.0000       0.638757        17.3815 
  39   0.0000       0.639317        17.3967 
  40   0.0000       0.643506        17.5107 
  41   0.0000       0.643986        17.5237 
  42   0.0000       0.671315        18.2674 
  43   0.0000       0.677852        18.4453 
  44   0.0000       0.678356        18.4590 
  45   0.0000       0.701283        19.0829 
  46   0.0000       0.740590        20.1525 
  47   0.0000       0.740739        20.1565 
  48   0.0000       0.780040        21.2260 
  49   0.0000       0.793880        21.6026 
  50   0.0000       0.911785        24.8109 
  51   0.0000       0.928435        25.2640 
  52   0.0000       0.928676        25.2706 
  53   0.0000       0.940608        25.5952 
  54   0.0000       0.941126        25.6093 
  55   0.0000       0.993539        27.0356 
  56   0.0000       1.012400        27.5488 
  57   0.0000       1.012511        27.5518 
  58   0.0000       1.041746        28.3474 
  59   0.0000       1.041918        28.3520 
  60   0.0000       1.075264        29.2594 
  61   0.0000       1.085891        29.5486 
  62   0.0000       1.086049        29.5529 
  63   0.0000       1.157987        31.5104 
  64   0.0000       1.158047        31.5121 
  65   0.0000       1.233956        33.5776 
  66   0.0000       1.554726        42.3062 
  67   0.0000       1.628463        44.3127 
  68   0.0000       1.628811        44.3222 
  69   0.0000       1.634130        44.4669 
  70   0.0000       1.634246        44.4701 
  71   0.0000       1.700557        46.2745 
  72   0.0000       1.711247        46.5654 
  73   0.0000       1.711645        46.5762 
  74   0.0000       1.722683        46.8766 
  75   0.0000       1.823177        49.6112 
  76   0.0000       1.823437        49.6182 
  77   0.0000       1.828183        49.7474 
  78   0.0000       1.899073        51.6764 
  79   0.0000       1.899266        51.6816 
  80   0.0000       1.908378        51.9296 
  81   0.0000       1.967109        53.5278 
  82   0.0000       1.973002        53.6881 
  83   0.0000       1.973267        53.6953 
  84   0.0000       2.179437        59.3055 
  85   0.0000       2.180043        59.3220 
  86   0.0000       2.180208        59.3265 
  87   0.0000       2.214127        60.2495 
  88   0.0000       2.214365        60.2559 
  89   0.0000       2.224044        60.5193 
  90   0.0000       2.364944        64.3534 
  91   0.0000       2.365226        64.3611 
  92   0.0000       2.373824        64.5950 
  93   0.0000       2.381258        64.7973 
  94   0.0000       2.396518        65.2126 
  95   0.0000       2.396563        65.2138 

                    ********************************
                    * MULLIKEN POPULATION ANALYSIS *
                    ********************************

-----------------------
MULLIKEN ATOMIC CHARGES
-----------------------
   0 C :   -0.192642
   1 H :    0.191873
   2 C :   -0.191430
   3 H :    0.191617
   4 C :   -0.191030
   5 H :    0.191669
   6 C :   -0.192585
   7 H :    0.191774
   8 C :   -0.191350
   9 H :    0.191497
  10 C :   -0.191039
  11 H :    0.191646
Sum of atomic charges:   -0.0000000

--------------------------------
MULLIKEN REDUCED ORBITAL CHARGES
--------------------------------
  0 C s       :     3.602475  s :     3.602475
      pz      :     0.788050  p :     2.571620
      px      :     0.908578
      py      :     0.874992
      dz2     :     0.000652  d :     0.018547
      dxz     :     0.005424
      dyz     :     0.002335
      dx2y2   :     0.008041
      dxy     :     0.002095
  1 H s       :     0.808127  s :     0.808127
  2 C s       :     3.602402  s :     3.602402
      pz      :     0.787296  p :     2.570520
      px      :     0.885549
      py      :     0.897675
      dz2     :     0.000657  d :     0.018508
      dxz     :     0.003295
      dyz     :     0.004429
      dx2y2   :     0.002762
      dxy     :     0.007366
  3 H s       :     0.808383  s :     0.808383
  4 C s       :     3.602854  s :     3.602854
      pz      :     0.788173  p :     2.569633
      px      :     0.879688
      py      :     0.901772
      dz2     :     0.000655  d :     0.018543
      dxz     :     0.002900
      dyz     :     0.004858
      dx2y2   :     0.004390
      dxy     :     0.005740
  5 H s       :     0.808331  s :     0.808331
  6 C s       :     3.602924  s :     3.602924
      pz      :     0.787902  p :     2.571109
      px      :     0.908338
      py      :     0.874869
      dz2     :     0.000649  d :     0.018552
      dxz     :     0.005441
      dyz     :     0.002342
      dx2y2   :     0.008026
      dxy     :     0.002094
  7 H s       :     0.808226  s :     0.808226
  8 C s       :     3.602875  s :     3.602875
      pz      :     0.786987  p :     2.569961
      px      :     0.885233
      py      :     0.897742
      dz2     :     0.000654  d :     0.018514
      dxz     :     0.003304
      dyz     :     0.004443
      dx2y2   :     0.002760
      dxy     :     0.007352
  9 H s       :     0.808503  s :     0.808503
 10 C s       :     3.602883  s :     3.602883
      pz      :     0.788065  p :     2.569613
      px      :     0.880080
      py      :     0.901467
      dz2     :     0.000656  d :     0.018544
      dxz     :     0.002906
      dyz     :     0.004851
      dx2y2   :     0.004380
      dxy     :     0.005751
 11 H s       :     0.808354  s :     0.808354


                     *******************************
                     * LOEWDIN POPULATION ANALYSIS *
                     *******************************

----------------------
LOEWDIN ATOMIC CHARGES
----------------------
   0 C :   -0.138301
   1 H :    0.137953
   2 C :   -0.137678
   3 H :    0.137926
   4 C :   -0.137538
   5 H :    0.137789
   6 C :   -0.138386
   7 H :    0.137915
   8 C :   -0.137758
   9 H :    0.137875
  10 C :   -0.137574
  11 H :    0.137778

-------------------------------
LOEWDIN REDUCED ORBITAL CHARGES
-------------------------------
  0 C s       :     3.354070  s :     3.354070
      pz      :     0.820417  p :     2.756102
      px      :     0.999637
      py      :     0.936048
      dz2     :     0.000708  d :     0.028129
      dxz     :     0.007991
      dyz     :     0.003066
      dx2y2   :     0.012220
      dxy     :     0.004145
  1 H s       :     0.862047  s :     0.862047
  2 C s       :     3.354109  s :     3.354109
      pz      :     0.819757  p :     2.755473
      px      :     0.956271
      py      :     0.979445
      dz2     :     0.000712  d :     0.028096
      dxz     :     0.004608
      dyz     :     0.006414
      dx2y2   :     0.005056
      dxy     :     0.011306
  3 H s       :     0.862074  s :     0.862074
  4 C s       :     3.354347  s :     3.354347
      pz      :     0.820628  p :     2.755046
      px      :     0.946864
      py      :     0.987554
      dz2     :     0.000709  d :     0.028145
      dxz     :     0.003969
      dyz     :     0.007093
      dx2y2   :     0.007272
      dxy     :     0.009102
  5 H s       :     0.862211  s :     0.862211
  6 C s       :     3.354548  s :     3.354548
      pz      :     0.820412  p :     2.755705
      px      :     0.999363
      py      :     0.935931
      dz2     :     0.000703  d :     0.028133
      dxz     :     0.008016
      dyz     :     0.003076
      dx2y2   :     0.012195
      dxy     :     0.004142
  7 H s       :     0.862085  s :     0.862085
  8 C s       :     3.354610  s :     3.354610
      pz      :     0.819600  p :     2.755047
      px      :     0.955961
      py      :     0.979486
      dz2     :     0.000708  d :     0.028101
      dxz     :     0.004620
      dyz     :     0.006436
      dx2y2   :     0.005052
      dxy     :     0.011285
  9 H s       :     0.862125  s :     0.862125
 10 C s       :     3.354377  s :     3.354377
      pz      :     0.820534  p :     2.755051
      px      :     0.947237
      py      :     0.987280
      dz2     :     0.000709  d :     0.028147
      dxz     :     0.003977
      dyz     :     0.007084
      dx2y2   :     0.007257
      dxy     :     0.009119
 11 H s       :     0.862222  s :     0.862222


                      *****************************
                      * MAYER POPULATION ANALYSIS *
                      *****************************

  NA   - Mulliken gross atomic population
  ZA   - Total nuclear charge
  QA   - Mulliken gross atomic charge
  VA   - Mayer's total valence
  BVA  - Mayer's bonded valence
  FA   - Mayer's free valence

  ATOM       NA         ZA         QA         VA         BVA        FA
  0 C      6.1926     6.0000    -0.1926     3.3993     3.3993    -0.0000
  1 H      0.8081     1.0000     0.1919     0.9089     0.9089    -0.0000
  2 C      6.1914     6.0000    -0.1914     3.3992     3.3992     0.0000
  3 H      0.8084     1.0000     0.1916     0.9091     0.9091     0.0000
  4 C      6.1910     6.0000    -0.1910     3.3984     3.3984     0.0000
  5 H      0.8083     1.0000     0.1917     0.9089     0.9089     0.0000
  6 C      6.1926     6.0000    -0.1926     3.3982     3.3982    -0.0000
  7 H      0.8082     1.0000     0.1918     0.9089     0.9089     0.0000
  8 C      6.1913     6.0000    -0.1913     3.3981     3.3981    -0.0000
  9 H      0.8085     1.0000     0.1915     0.9091     0.9091    -0.0000
 10 C      6.1910     6.0000    -0.1910     3.3983     3.3983     0.0000
 11 H      0.8084     1.0000     0.1916     0.9089     0.9089    -0.0000

  Mayer bond orders larger than 0.1
B(  0-C ,  1-H ) :   0.8780 B(  0-C ,  2-C ) :   1.1516 B(  0-C , 10-C ) :   1.1514 
B(  2-C ,  3-H ) :   0.8781 B(  2-C ,  4-C ) :   1.1512 B(  4-C ,  5-H ) :   0.8780 
B(  4-C ,  6-C ) :   1.1510 B(  6-C ,  7-H ) :   0.8781 B(  6-C ,  8-C ) :   1.1509 
B(  8-C ,  9-H ) :   0.8782 B(  8-C , 10-C ) :   1.1508 B( 10-C , 11-H ) :   0.8780 


-------
TIMINGS
-------

Total SCF time: 0 days 0 hours 0 min 26 sec 

Total time                  ....      26.487 sec
Sum of individual times     ....      26.346 sec  ( 99.5%)

Fock matrix formation       ....      24.812 sec  ( 93.7%)
  XC integration            ....       2.610 sec  ( 10.5% of F)
    Basis function eval.    ....       1.328 sec  ( 50.9% of XC)
    Density eval.           ....       0.199 sec  (  7.6% of XC)
    XC-Functional eval.     ....       0.557 sec  ( 21.4% of XC)
    XC-Potential eval.      ....       0.261 sec  ( 10.0% of XC)
Diagonalization             ....       0.012 sec  (  0.0%)
Density matrix formation    ....       0.001 sec  (  0.0%)
Population analysis         ....       0.012 sec  (  0.0%)
Initial guess               ....       0.362 sec  (  1.4%)
Orbital Transformation      ....       0.000 sec  (  0.0%)
Orbital Orthonormalization  ....       0.000 sec  (  0.0%)
DIIS solution               ....       0.000 sec  (  0.0%)
Grid generation             ....       1.146 sec  (  4.3%)


-------------------------------------------------------------------------------
                          DFT DISPERSION CORRECTION                            
                                                                               
                              DFTD3 V3.1  Rev 1                                
                              USING zero damping                               
-------------------------------------------------------------------------------
The omegaB97X-D3 functional is recognized. Fit by Chai et al.
Active option DFTDOPT                   ...         3   

molecular C6(AA) [au] = 1869.984580 


            DFT-D V3
 parameters
 s6 scaling factor         :     1.0000 
 rs6 scaling factor        :     1.2810 
 s8 scaling factor         :     1.0000 
 rs8 scaling factor        :     1.0940 
 Damping factor alpha6     :    14.0000 
 Damping factor alpha8     :    16.0000 
 ad hoc parameters k1-k3   :    16.0000     1.3333    -4.0000 

 Edisp/kcal,au: -1.710307426009  -0.002725548082 
 E6   /kcal   :  -0.630154334 
 E8   /kcal   :  -1.080153092 
 % E8         :  63.155493316 

-------------------------   ----------------
Dispersion correction           -0.002725548
-------------------------   ----------------


-------------------------   --------------------
FINAL SINGLE POINT ENERGY      -231.342853482812
-------------------------   --------------------


                            ***************************************
                            *     ORCA property calculations      *
                            ***************************************

                                    ---------------------
                                    Active property flags
                                    ---------------------
   (+) Dipole Moment


------------------------------------------------------------------------------
                       ORCA ELECTRIC PROPERTIES CALCULATION
------------------------------------------------------------------------------

Dipole Moment Calculation                       ... on
Quadrupole Moment Calculation                   ... off
Polarizability Calculation                      ... off
GBWName                                         ... Scan_17.gbw
Electron density file                           ... Scan_17.scfp.tmp

-------------
DIPOLE MOMENT
-------------
                                X             Y             Z
Electronic contribution:      0.00069       0.00067       0.00000
Nuclear contribution   :      0.00066       0.00016       0.00005
                        -----------------------------------------
Total Dipole Moment    :      0.00135       0.00083       0.00005
                        -----------------------------------------
Magnitude (a.u.)       :      0.00158
Magnitude (Debye)      :      0.00403


Timings for individual modules:

Sum of individual times         ...       26.839 sec (=   0.447 min)
GTO integral calculation        ...        0.328 sec (=   0.005 min)   1.2 %
SCF iterations                  ...       26.510 sec (=   0.442 min)  98.8 %
                             ****ORCA TERMINATED NORMALLY****
TOTAL RUN TIME: 0 days 0 hours 0 minutes 27 seconds 173 msec
