
                                 *****************
                                 * O   R   C   A *
                                 *****************

           --- An Ab Initio, DFT and Semiempirical electronic structure package ---

                  #######################################################
                  #                        -***-                        #
                  #  Department of molecular theory and spectroscopy    #
                  #              Directorship: Frank Neese              #
                  # Max Planck Institute for Chemical Energy Conversion #
                  #                  D-45470 Muelheim/Ruhr              #
                  #                       Germany                       #
                  #                                                     #
                  #                  All rights reserved                #
                  #                        -***-                        #
                  #######################################################


                         Program Version 4.0.0.2 - RELEASE -


 With contributions from (in alphabetic order):
   Daniel Aravena         : Magnetic Properties
   Michael Atanasov       : Ab Initio Ligand Field Theory
   Ute Becker             : Parallelization
   Martin Brehm           : Molecular dynamics
   Dmytro Bykov           : SCF Hessian
   Vijay G. Chilkuri      : MRCI spin determinant printing
   Dipayan Datta          : RHF DLPNO-CCSD density
   Achintya Kumar Dutta   : EOM-CC, STEOM-CC
   Dmitry Ganyushin       : Spin-Orbit,Spin-Spin,Magnetic field MRCI
   Yang Guo               : DLPNO-NEVPT2, CIM, IAO-localization
   Andreas Hansen         : Spin unrestricted coupled pair/coupled cluster methods
   Lee Huntington         : MR-EOM, pCC
   Robert Izsak           : Overlap fitted RIJCOSX, COSX-SCS-MP3, EOM
   Christian Kollmar      : KDIIS, OOCD, Brueckner-CCSD(T), CCSD density
   Simone Kossmann        : Meta GGA functionals, TD-DFT gradient, OOMP2, MP2 Hessian
   Martin Krupicka        : AUTO-CI
   Dagmar Lenk            : GEPOL surface
   Dimitrios Liakos       : Extrapolation schemes; parallel MDCI
   Dimitrios Manganas     : ROCIS; embedding schemes
   Dimitrios Pantazis     : SARC Basis sets
   Taras Petrenko         : DFT Hessian,TD-DFT gradient, ASA, ECA, R-Raman, ABS, FL, XAS/XES, NRVS
   Peter Pinski           : DLPNO-MP2
   Christoph Reimann      : Effective Core Potentials
   Marius Retegan         : Local ZFS, SOC
   Christoph Riplinger    : Optimizer, TS searches, QM/MM, DLPNO-CCSD(T), (RO)-DLPNO pert. Triples
   Tobias Risthaus        : Range-separated hybrids, TD-DFT gradient, RPA, STAB
   Michael Roemelt        : Restricted open shell CIS
   Masaaki Saitow         : Open-shell DLPNO
   Barbara Sandhoefer     : DKH picture change effects
   Kantharuban Sivalingam : CASSCF convergence, NEVPT2, FIC-MRCI
   Georgi Stoychev        : AutoAux
   Boris Wezisla          : Elementary symmetry handling
   Frank Wennmohs         : Technical directorship


 We gratefully acknowledge several colleagues who have allowed us to
 interface, adapt or use parts of their codes:
   Stefan Grimme, W. Hujo, H. Kruse,             : VdW corrections, initial TS optimization,
                  C. Bannwarth                     DFT functionals, gCP, sTDA/sTD-DF
   Ed Valeev                                     : LibInt (2-el integral package), F12 methods
   Garnet Chan, S. Sharma, J. Yang, R. Olivares  : DMRG
   Ulf Ekstrom                                   : XCFun DFT Library
   Mihaly Kallay                                 : mrcc  (arbitrary order and MRCC methods)
   Jiri Pittner, Ondrej Demel                    : Mk-CCSD
   Frank Weinhold                                : gennbo (NPA and NBO analysis)
   Christopher J. Cramer and Donald G. Truhlar   : smd solvation model


 Your calculation uses the libint2 library for the computation of 2-el integrals
 For citations please refer to: http://libint.valeyev.net

 This ORCA versions uses:
   CBLAS   interface :  Fast vector & matrix operations
   LAPACKE interface :  Fast linear algebra routines
   SCALAPACK package :  Parallel linear algebra routines


Your calculation utilizes the atom-pairwise dispersion correction
with the zero-damping scheme (D30)
Cite in your paper:
S.Grimme, J.Antony, S.Ehrlich and H.Krieg, J.Chem.Phys., 132, (2010), 154104 
   

XCFun DFT library Copyright 2009-2010 Ulf Ekstrom and contributors.
See http://admol.org/xcfun for more information. This is free soft-
ware; see the source code for copying conditions. There is ABSOLUTELY
NO WARRANTY; not even for MERCHANTABILITY or FITNESS FOR A PARTICULAR
PURPOSE. For details see the documentation. Scientific users of this 
library should cite U. Ekstrom, L. Visscher, R. Bast, A. J. Thorvald-
sen and K. Ruud; J.Chem.Theor.Comp. 2010, DOI: 10.1021/ct100117s
XCFun Version 0.99 
Your calculation utilizes the basis: 6-31G(d)
   H-He, Li-Ne : W. J. Hehre, R. Ditchfield and J.A. Pople, J. Chem. Phys. 56, 2257 (1972).
                 Note: He and Ne are unpublished basis sets taken from the Gaussian program.
                 Note: Li and B from J. D. Dill and J. A. Pople, J. Chem. Phys. 62, 2921 (1975).
   Na - Ar     : M. M. Francl, W. J. Pietro, W. J. Hehre, J. S. Binkley, M. S. Gordon, 
                 D. J. DeFrees and J. A. Pople, J. Chem. Phys. 77, 3654 (1982).
   K - Zn      : V. A. Rassolov, J. A. Pople, M. A. Ratner, and T. L. Windus, J. Chem. Phys. 109, 1223 (1998).

================================================================================
                                        WARNINGS
                       Please study these warnings very carefully!
================================================================================

Warning: TCutStore was < 0. Adjusted to Thresh (uncritical)

INFO   : the flag for use of LIBINT has been found!

================================================================================
                                       INPUT FILE
================================================================================
NAME = initial18.inp
|  1> ! WB97X-D3 6-31G(d) VerySlowConv
|  2> ! KDIIS NOSOSCF
|  3> %base "Scan_18"
|  4> 
|  5> %scf
|  6> maxiter 999
|  7> end
|  8> 
|  9> * xyz 0 1
| 10> C          2.200445256199   -2.901374444345    0.266698022254
| 11> H          3.130748483615   -2.972658579884   -0.292994332070
| 12> C          1.302727872839   -1.029208123542   -0.266348776214
| 13> H          1.829419131550   -0.259072816904    0.293248146256
| 14> C         -0.767759680086   -0.869955906311    0.265290626458
| 15> H         -1.171739448816   -0.029029479025   -0.293706016476
| 16> C         -1.940985900094   -2.584208842222   -0.264012378391
| 17> H         -2.871784026979   -2.513285651212    0.293531999239
| 18> C         -1.042506813399   -4.457469163999    0.264483473384
| 19> H         -1.569988399835   -5.227509548754   -0.293378643432
| 20> C          1.028540018575   -4.615502480148   -0.266114762350
| 21> H          1.431493506432   -5.456834963653    0.293302641341
| 22> **                         ****END OF INPUT****
================================================================================

                       ****************************
                       * Single Point Calculation *
                       ****************************

---------------------------------
CARTESIAN COORDINATES (ANGSTROEM)
---------------------------------
  C      2.200445   -2.901374    0.266698
  H      3.130748   -2.972659   -0.292994
  C      1.302728   -1.029208   -0.266349
  H      1.829419   -0.259073    0.293248
  C     -0.767760   -0.869956    0.265291
  H     -1.171739   -0.029029   -0.293706
  C     -1.940986   -2.584209   -0.264012
  H     -2.871784   -2.513286    0.293532
  C     -1.042507   -4.457469    0.264483
  H     -1.569988   -5.227510   -0.293379
  C      1.028540   -4.615502   -0.266115
  H      1.431494   -5.456835    0.293303

----------------------------
CARTESIAN COORDINATES (A.U.)
----------------------------
  NO LB      ZA    FRAG     MASS         X           Y           Z
   0 C     6.0000    0    12.011    4.158239   -5.482803    0.503986
   1 H     1.0000    0     1.008    5.916257   -5.617511   -0.553679
   2 C     6.0000    0    12.011    2.461799   -1.944921   -0.503326
   3 H     1.0000    0     1.008    3.457101   -0.489577    0.554159
   4 C     6.0000    0    12.011   -1.450856   -1.643978    0.501327
   5 H     1.0000    0     1.008   -2.214267   -0.054858   -0.555024
   6 C     6.0000    0    12.011   -3.667932   -4.883447   -0.498911
   7 H     1.0000    0     1.008   -5.426885   -4.749422    0.554695
   8 C     6.0000    0    12.011   -1.970052   -8.423396    0.499801
   9 H     1.0000    0     1.008   -2.966848   -9.878561   -0.554405
  10 C     6.0000    0    12.011    1.943659   -8.722036   -0.502884
  11 H     1.0000    0     1.008    2.705131  -10.311924    0.554262

--------------------------------
INTERNAL COORDINATES (ANGSTROEM)
--------------------------------
 C      0   0   0     0.000000000000     0.00000000     0.00000000
 H      1   0   0     1.088026219541     0.00000000     0.00000000
 C      1   2   0     2.143604936198   106.70134513     0.00000000
 H      3   1   2     1.087961758598   106.71383510   281.67360612
 C      3   1   2     2.143576550997   114.06175536   164.10795138
 H      5   3   1     1.087581792999   106.78320401   195.85887505
 C      5   3   1     2.143661485061   114.07859806   313.52994084
 H      7   5   3     1.087322852267   106.84253138   164.16553670
 C      7   5   3     2.143752963314   114.11247902    46.34305343
 H      9   7   5     1.087386389266   106.79919423   195.89209241
 C      1   2   3     2.143708532551   106.68930520   122.29189101
 H     11   1   2     1.087731443293   106.74624061    78.32511116

---------------------------
INTERNAL COORDINATES (A.U.)
---------------------------
 C      0   0   0     0.000000000000     0.00000000     0.00000000
 H      1   0   0     2.056071581458     0.00000000     0.00000000
 C      1   2   0     4.050826268736   106.70134513     0.00000000
 H      3   1   2     2.055949767929   106.71383510   281.67360612
 C      3   1   2     4.050772628480   114.06175536   164.10795138
 H      5   3   1     2.055231737007   106.78320401   195.85887505
 C      5   3   1     4.050933130601   114.07859806   313.52994084
 H      7   5   3     2.054742409939   106.84253138   164.16553670
 C      7   5   3     4.051105999445   114.11247902    46.34305343
 H      9   7   5     2.054862477466   106.79919423   195.89209241
 C      1   2   3     4.051022037472   106.68930520   122.29189101
 H     11   1   2     2.055514535079   106.74624061    78.32511116

---------------------
BASIS SET INFORMATION
---------------------
There are 2 groups of distinct atoms

 Group   1 Type C   : 10s4p1d contracted to 3s2p1d pattern {631/31/1}
 Group   2 Type H   : 4s contracted to 2s pattern {31}

Atom   0C    basis set group =>   1
Atom   1H    basis set group =>   2
Atom   2C    basis set group =>   1
Atom   3H    basis set group =>   2
Atom   4C    basis set group =>   1
Atom   5H    basis set group =>   2
Atom   6C    basis set group =>   1
Atom   7H    basis set group =>   2
Atom   8C    basis set group =>   1
Atom   9H    basis set group =>   2
Atom  10C    basis set group =>   1
Atom  11H    basis set group =>   2
------------------------------------------------------------------------------
                           ORCA GTO INTEGRAL CALCULATION
------------------------------------------------------------------------------

                         BASIS SET STATISTICS AND STARTUP INFO

 # of primitive gaussian shells          ...  114
 # of primitive gaussian functions       ...  186
 # of contracted shells                  ...   48
 # of contracted basis functions         ...   96
 Highest angular momentum                ...    2
 Maximum contraction depth               ...    6
 Integral package used                   ... LIBINT
 Integral threshhold            Thresh   ...  1.000e-10
 Primitive cut-off              TCut     ...  1.000e-11


------------------------------ INTEGRAL EVALUATION ----------------------------


 * One electron integrals 
 Pre-screening matrix                    ... done
 Shell pair data                         ... done (   0.001 sec)

-------------------------------------------------------------------------------
                                 ORCA SCF
-------------------------------------------------------------------------------

------------
SCF SETTINGS
------------
Hamiltonian:
 Density Functional     Method          .... DFT(GTOs)
 Exchange Functional    Exchange        .... WB97X-D3
 Correlation Functional Correlation     .... WB97X-D3
 Gradients option       PostSCFGGA      .... off
 Hybrid DFT is turned on
   Fraction HF Exchange ScalHFX         ....  0.195728
   Scaling of DF-GGA-X  ScalDFX         ....  0.000000
   Scaling of DF-GGA-C  ScalDFC         ....  1.000000
   Scaling of DF-LDA-C  ScalLDAC        ....  1.000000
   Perturbative correction              ....  0.000000
 Long-range corrected/Screened/Range-Separated Hybrid DFT is turned on
   Amount of maximum screened exact exchange              ....  0.804272
   Range separation parameter mu (erf(mu*r12)/r12)        ....  0.250000


General Settings:
 Integral files         IntName         .... Scan_18
 Hartree-Fock type      HFTyp           .... RHF
 Total Charge           Charge          ....    0
 Multiplicity           Mult            ....    1
 Number of Electrons    NEL             ....   42
 Basis Dimension        Dim             ....   96
 Nuclear Repulsion      ENuc            ....    144.7190056951 Eh

Convergence Acceleration:
 DIIS                   CNVDIIS         .... on
   Start iteration      DIISMaxIt       ....     0
   Startup error        DIISStart       ....  0.200000
   # of expansion vecs  DIISMaxEq       ....     5
   Bias factor          DIISBfac        ....   1.050
   Max. coefficient     DIISMaxC        ....  10.000
 Newton-Raphson         CNVNR           .... off
 SOSCF                  CNVSOSCF        .... off
 Level Shifting         CNVShift        .... off
 Zerner damping         CNVZerner       .... off
 Static damping         CNVDamp         .... off
 Fernandez-Rico         CNVRico         .... off

SCF Procedure:
 Maximum # iterations   MaxIter         ....   999
 SCF integral mode      SCFMode         .... Direct
   Integral package                     .... LIBINT
 Reset frequeny         DirectResetFreq ....    20
 Integral Threshold     Thresh          ....  1.000e-10 Eh
 Primitive CutOff       TCut            ....  1.000e-11 Eh

Convergence Tolerance:
 Convergence Check Mode ConvCheckMode   .... All-Criteria
 Convergence forced     ConvForced      .... 0
 Energy Change          TolE            ....  1.000e-06 Eh
 Max Density Change     TolMaxP         ....  1.000e-05
 RMS Density Change     TolRMSP         ....  1.000e-06
 DIIS Error             TolErr          ....  1.000e-06


Diagonalization of the overlap matrix:
Smallest eigenvalue                        ... 2.543e-02
Time for diagonalization                   ...    0.002 sec
Threshold for overlap eigenvalues          ... 1.000e-08
Number of eigenvalues below threshold      ... 0
Time for construction of square roots      ...    0.009 sec
Total time needed                          ...    0.011 sec

-------------------
DFT GRID GENERATION
-------------------

General Integration Accuracy     IntAcc      ...  4.340
Radial Grid Type                 RadialGrid  ... Gauss-Chebyshev
Angular Grid (max. acc.)         AngularGrid ... Lebedev-110
Angular grid pruning method      GridPruning ... 3 (G Style)
Weight generation scheme         WeightScheme... Becke
Basis function cutoff            BFCut       ...    1.0000e-10
Integration weight cutoff        WCut        ...    1.0000e-14
Grids for H and He will be reduced by one unit

# of grid points (after initial pruning)     ...  14700 (   0.0 sec)
# of grid points (after weights+screening)   ...  14058 (   0.0 sec)
nearest neighbour list constructed           ...    0.0 sec
Grid point re-assignment to atoms done       ...    0.0 sec
Grid point division into batches done        ...    0.0 sec
Reduced shell lists constructed in    0.2 sec

Total number of grid points                  ...    14058
Total number of batches                      ...      228
Average number of points per batch           ...       61
Average number of grid points per atom       ...     1172
Average number of shells per batch           ...    32.14 (66.96%)
Average number of basis functions per batch  ...    65.02 (67.73%)
Average number of large shells per batch     ...    24.06 (74.86%)
Average number of large basis fcns per batch ...    49.45 (76.05%)
Maximum spatial batch extension              ...  19.06, 22.36, 25.60 au
Average spatial batch extension              ...   4.21,  4.60,  5.07 au

Time for grid setup =    0.237 sec

------------------------------
INITIAL GUESS: MODEL POTENTIAL
------------------------------
Loading Hartree-Fock densities                     ... done
Calculating cut-offs                               ... done
Setting up the integral package                    ... done
Initializing the effective Hamiltonian             ... done
Starting the Coulomb interaction                   ... done (   0.1 sec)
Reading the grid                                   ... done
Mapping shells                                     ... done
Starting the XC term evaluation                    ... done (   0.2 sec)
  promolecular density results
     # of electrons  =     41.995004180
     EX              =    -31.703065297
     EC              =     -1.216852287
     EX+EC           =    -32.919917584
Transforming the Hamiltonian                       ... done (   0.0 sec)
Diagonalizing the Hamiltonian                      ... done (   0.0 sec)
Back transforming the eigenvectors                 ... done (   0.0 sec)
Now organizing SCF variables                       ... done
                      ------------------
                      INITIAL GUESS DONE (   0.6 sec)
                      ------------------
--------------
SCF ITERATIONS
--------------
ITER       Energy         Delta-E        Max-DP      RMS-DP      [F,P]   Gradient Norm
               ***  Starting incremental Fock matrix formation  ***
                             ****Resetting KDIIS****
                             ****Turning on KDIIS(Cayley)****
  0   -231.1713790882   0.000000000000 0.00357916  0.00029358  0.0259147   0.024960345
  1   -231.1753046078  -0.003925519558 0.00550177  0.00046801  0.0226010   0.022326470
  2   -231.1807698624  -0.005465254653 0.01071918  0.00089284  0.0184507   0.018125502
  3   -231.1881290824  -0.007359219949 0.01690734  0.00141198  0.0110075   0.010848519
  4   -231.1924685497  -0.004339467376 0.00246596  0.00015626  0.0010279   0.000882992
  5   -231.1925142567  -0.000045706940 0.00067559  0.00003779  0.0001708   0.000161048
  6   -231.1925155350  -0.000001278342 0.00020608  0.00001059  0.0001279   0.000100016
                          ***Energy convergence achieved***
  7   -231.1925158788  -0.000000343790 0.00011801  0.00000646  0.0000411   0.000026694

            ***Energy convergence in two consecutive cycles with***
                    ***'reasonable' density convergence***
                       *** signaling convergence ***

                    *** KDIIS BlockDiag ( 0.001 sec) ***

               *****************************************************
               *                     SUCCESS                       *
               *           SCF CONVERGED AFTER   8 CYCLES          *
               *****************************************************

Setting up the final grid:

General Integration Accuracy     IntAcc      ...  4.670
Radial Grid Type                 RadialGrid  ... Gauss-Chebyshev
Angular Grid (max. acc.)         AngularGrid ... Lebedev-302
Angular grid pruning method      GridPruning ... 3 (G Style)
Weight generation scheme         WeightScheme... Becke
Basis function cutoff            BFCut       ...    1.0000e-10
Integration weight cutoff        WCut        ...    1.0000e-14
Grids for H and He will be reduced by one unit

# of grid points (after initial pruning)     ...  57636 (   0.0 sec)
# of grid points (after weights+screening)   ...  54562 (   0.1 sec)
nearest neighbour list constructed           ...    0.0 sec
Grid point re-assignment to atoms done       ...    0.0 sec
Grid point division into batches done        ...    0.2 sec
Reduced shell lists constructed in    0.8 sec

Total number of grid points                  ...    54562
Total number of batches                      ...      858
Average number of points per batch           ...       63
Average number of grid points per atom       ...     4547
Average number of shells per batch           ...    28.84 (60.09%)
Average number of basis functions per batch  ...    57.94 (60.35%)
Average number of large shells per batch     ...    20.81 (72.15%)
Average number of large basis fcns per batch ...    42.60 (73.52%)
Maximum spatial batch extension              ...  18.89, 19.04, 21.77 au
Average spatial batch extension              ...   2.82,  2.88,  3.01 au

Final grid set up in    0.9 sec
Final integration                            ... done (   0.7 sec)
Change in XC energy                          ...    -0.000774144
Integrated number of electrons               ...    42.000004741
Previous integrated no of electrons          ...    42.004286986

----------------
TOTAL SCF ENERGY
----------------

Total Energy       :         -231.19329008 Eh           -6291.08926 eV

Components:
Nuclear Repulsion  :          144.71900570 Eh            3938.00435 eV
Electronic Energy  :         -375.91229577 Eh          -10229.09361 eV
One Electron Energy:         -596.12595758 Eh          -16221.41199 eV
Two Electron Energy:          220.21366181 Eh            5992.31838 eV

Virial components:
Potential Energy   :         -459.05807965 Eh          -12491.60541 eV
Kinetic Energy     :          227.86478958 Eh            6200.51615 eV
Virial Ratio       :            2.01460735


DFT components:
N(Alpha)           :       21.000002370493 electrons
N(Beta)            :       21.000002370493 electrons
N(Total)           :       42.000004740987 electrons
E(XC)              :      -22.813697852588 Eh       

---------------
SCF CONVERGENCE
---------------

  Last Energy change         ...   -5.3432e-08  Tolerance :   1.0000e-06
  Last MAX-Density change    ...    2.7800e-05  Tolerance :   1.0000e-05
  Last RMS-Density change    ...    2.0522e-06  Tolerance :   1.0000e-06
  Last DIIS Error            ...    1.3806e-05  Tolerance :   1.0000e-06

             **** THE GBW FILE WAS UPDATED (Scan_18.gbw) ****
             **** DENSITY FILE WAS UPDATED (Scan_18.scfp.tmp) ****
             **** ENERGY FILE WAS UPDATED (Scan_18.en.tmp) ****
----------------
ORBITAL ENERGIES
----------------

  NO   OCC          E(Eh)            E(eV) 
   0   2.0000     -10.390748      -282.7466 
   1   2.0000     -10.390706      -282.7455 
   2   2.0000     -10.390657      -282.7442 
   3   2.0000     -10.390638      -282.7436 
   4   2.0000     -10.390573      -282.7419 
   5   2.0000     -10.390543      -282.7411 
   6   2.0000      -0.789104       -21.4726 
   7   2.0000      -0.762634       -20.7523 
   8   2.0000      -0.762584       -20.7510 
   9   2.0000      -0.706947       -19.2370 
  10   2.0000      -0.706896       -19.2356 
  11   2.0000      -0.674107       -18.3434 
  12   2.0000      -0.474604       -12.9146 
  13   2.0000      -0.432977       -11.7819 
  14   2.0000      -0.432918       -11.7803 
  15   2.0000      -0.387662       -10.5488 
  16   2.0000      -0.387597       -10.5470 
  17   2.0000      -0.371921       -10.1205 
  18   2.0000      -0.366993        -9.9864 
  19   2.0000      -0.289455        -7.8765 
  20   2.0000      -0.289390        -7.8747 
  21   0.0000      -0.054781        -1.4907 
  22   0.0000      -0.054527        -1.4837 
  23   0.0000      -0.003303        -0.0899 
  24   0.0000       0.066056         1.7975 
  25   0.0000       0.066239         1.8025 
  26   0.0000       0.078335         2.1316 
  27   0.0000       0.106701         2.9035 
  28   0.0000       0.106840         2.9073 
  29   0.0000       0.160257         4.3608 
  30   0.0000       0.219014         5.9597 
  31   0.0000       0.247286         6.7290 
  32   0.0000       0.247404         6.7322 
  33   0.0000       0.248033         6.7493 
  34   0.0000       0.259910         7.0725 
  35   0.0000       0.260006         7.0751 
  36   0.0000       0.556465        15.1422 
  37   0.0000       0.590620        16.0716 
  38   0.0000       0.633020        17.2254 
  39   0.0000       0.633561        17.2401 
  40   0.0000       0.643362        17.5068 
  41   0.0000       0.643531        17.5114 
  42   0.0000       0.669415        18.2157 
  43   0.0000       0.670009        18.2319 
  44   0.0000       0.683811        18.6074 
  45   0.0000       0.704809        19.1788 
  46   0.0000       0.736507        20.0414 
  47   0.0000       0.736635        20.0448 
  48   0.0000       0.794931        21.6312 
  49   0.0000       0.800242        21.7757 
  50   0.0000       0.877660        23.8824 
  51   0.0000       0.877822        23.8867 
  52   0.0000       0.895255        24.3611 
  53   0.0000       0.906684        24.6721 
  54   0.0000       0.907144        24.6846 
  55   0.0000       0.985267        26.8105 
  56   0.0000       1.008395        27.4398 
  57   0.0000       1.008562        27.4444 
  58   0.0000       1.031946        28.0807 
  59   0.0000       1.031980        28.0816 
  60   0.0000       1.060002        28.8441 
  61   0.0000       1.060266        28.8513 
  62   0.0000       1.064117        28.9561 
  63   0.0000       1.117505        30.4089 
  64   0.0000       1.117693        30.4140 
  65   0.0000       1.255662        34.1683 
  66   0.0000       1.584504        43.1166 
  67   0.0000       1.663055        45.2540 
  68   0.0000       1.663205        45.2581 
  69   0.0000       1.676833        45.6289 
  70   0.0000       1.676965        45.6325 
  71   0.0000       1.724883        46.9364 
  72   0.0000       1.739887        47.3447 
  73   0.0000       1.740235        47.3542 
  74   0.0000       1.742323        47.4110 
  75   0.0000       1.821251        49.5588 
  76   0.0000       1.821456        49.5643 
  77   0.0000       1.828168        49.7470 
  78   0.0000       1.860700        50.6322 
  79   0.0000       1.860916        50.6381 
  80   0.0000       1.861702        50.6595 
  81   0.0000       1.904390        51.8211 
  82   0.0000       1.904560        51.8257 
  83   0.0000       1.923701        52.3466 
  84   0.0000       2.115583        57.5680 
  85   0.0000       2.128322        57.9146 
  86   0.0000       2.128554        57.9209 
  87   0.0000       2.172690        59.1219 
  88   0.0000       2.173107        59.1332 
  89   0.0000       2.217639        60.3450 
  90   0.0000       2.252692        61.2989 
  91   0.0000       2.288002        62.2597 
  92   0.0000       2.288285        62.2674 
  93   0.0000       2.326232        63.3000 
  94   0.0000       2.331474        63.4426 
  95   0.0000       2.331549        63.4447 

                    ********************************
                    * MULLIKEN POPULATION ANALYSIS *
                    ********************************

-----------------------
MULLIKEN ATOMIC CHARGES
-----------------------
   0 C :   -0.188362
   1 H :    0.187507
   2 C :   -0.187808
   3 H :    0.187685
   4 C :   -0.186505
   5 H :    0.187429
   6 C :   -0.188495
   7 H :    0.187745
   8 C :   -0.187934
   9 H :    0.187861
  10 C :   -0.186482
  11 H :    0.187360
Sum of atomic charges:   -0.0000000

--------------------------------
MULLIKEN REDUCED ORBITAL CHARGES
--------------------------------
  0 C s       :     3.687860  s :     3.687860
      pz      :     0.734946  p :     2.483482
      px      :     0.857649
      py      :     0.890887
      dz2     :     0.000213  d :     0.017019
      dxz     :     0.007336
      dyz     :     0.001844
      dx2y2   :     0.006398
      dxy     :     0.001228
  1 H s       :     0.812493  s :     0.812493
  2 C s       :     3.687836  s :     3.687836
      pz      :     0.735934  p :     2.482967
      px      :     0.879353
      py      :     0.867681
      dz2     :     0.000212  d :     0.017005
      dxz     :     0.003564
      dyz     :     0.005621
      dx2y2   :     0.001813
      dxy     :     0.005795
  3 H s       :     0.812315  s :     0.812315
  4 C s       :     3.687490  s :     3.687490
      pz      :     0.736727  p :     2.482013
      px      :     0.883596
      py      :     0.861690
      dz2     :     0.000213  d :     0.017002
      dxz     :     0.002844
      dyz     :     0.006326
      dx2y2   :     0.003216
      dxy     :     0.004403
  5 H s       :     0.812571  s :     0.812571
  6 C s       :     3.687137  s :     3.687137
      pz      :     0.734977  p :     2.484347
      px      :     0.858114
      py      :     0.891256
      dz2     :     0.000215  d :     0.017011
      dxz     :     0.007312
      dyz     :     0.001830
      dx2y2   :     0.006426
      dxy     :     0.001229
  7 H s       :     0.812255  s :     0.812255
  8 C s       :     3.687339  s :     3.687339
      pz      :     0.735834  p :     2.483597
      px      :     0.880558
      py      :     0.867205
      dz2     :     0.000213  d :     0.016998
      dxz     :     0.003561
      dyz     :     0.005593
      dx2y2   :     0.001807
      dxy     :     0.005823
  9 H s       :     0.812139  s :     0.812139
 10 C s       :     3.687719  s :     3.687719
      pz      :     0.736603  p :     2.481760
      px      :     0.882528
      py      :     0.862629
      dz2     :     0.000213  d :     0.017003
      dxz     :     0.002836
      dyz     :     0.006343
      dx2y2   :     0.003231
      dxy     :     0.004380
 11 H s       :     0.812640  s :     0.812640


                     *******************************
                     * LOEWDIN POPULATION ANALYSIS *
                     *******************************

----------------------
LOEWDIN ATOMIC CHARGES
----------------------
   0 C :   -0.134194
   1 H :    0.133704
   2 C :   -0.133876
   3 H :    0.133684
   4 C :   -0.133277
   5 H :    0.133750
   6 C :   -0.133958
   7 H :    0.133781
   8 C :   -0.133720
   9 H :    0.133731
  10 C :   -0.133345
  11 H :    0.133721

-------------------------------
LOEWDIN REDUCED ORBITAL CHARGES
-------------------------------
  0 C s       :     3.453754  s :     3.453754
      pz      :     0.778238  p :     2.655374
      px      :     0.941072
      py      :     0.936064
      dz2     :     0.000300  d :     0.025067
      dxz     :     0.010554
      dyz     :     0.002266
      dx2y2   :     0.009374
      dxy     :     0.002573
  1 H s       :     0.866296  s :     0.866296
  2 C s       :     3.453644  s :     3.453644
      pz      :     0.779207  p :     2.655174
      px      :     0.936871
      py      :     0.939097
      dz2     :     0.000299  d :     0.025058
      dxz     :     0.004870
      dyz     :     0.007950
      dx2y2   :     0.003349
      dxy     :     0.008589
  3 H s       :     0.866316  s :     0.866316
  4 C s       :     3.453357  s :     3.453357
      pz      :     0.779912  p :     2.654850
      px      :     0.936463
      py      :     0.938474
      dz2     :     0.000301  d :     0.025071
      dxz     :     0.003780
      dyz     :     0.009028
      dx2y2   :     0.005196
      dxy     :     0.006766
  5 H s       :     0.866250  s :     0.866250
  6 C s       :     3.452908  s :     3.452908
      pz      :     0.777966  p :     2.655993
      px      :     0.941643
      py      :     0.936384
      dz2     :     0.000302  d :     0.025058
      dxz     :     0.010518
      dyz     :     0.002245
      dx2y2   :     0.009417
      dxy     :     0.002576
  7 H s       :     0.866219  s :     0.866219
  8 C s       :     3.453060  s :     3.453060
      pz      :     0.778883  p :     2.655611
      px      :     0.938041
      py      :     0.938686
      dz2     :     0.000301  d :     0.025049
      dxz     :     0.004865
      dyz     :     0.007912
      dx2y2   :     0.003341
      dxy     :     0.008630
  9 H s       :     0.866269  s :     0.866269
 10 C s       :     3.453626  s :     3.453626
      pz      :     0.779866  p :     2.654648
      px      :     0.935403
      py      :     0.939379
      dz2     :     0.000300  d :     0.025071
      dxz     :     0.003768
      dyz     :     0.009053
      dx2y2   :     0.005218
      dxy     :     0.006731
 11 H s       :     0.866279  s :     0.866279


                      *****************************
                      * MAYER POPULATION ANALYSIS *
                      *****************************

  NA   - Mulliken gross atomic population
  ZA   - Total nuclear charge
  QA   - Mulliken gross atomic charge
  VA   - Mayer's total valence
  BVA  - Mayer's bonded valence
  FA   - Mayer's free valence

  ATOM       NA         ZA         QA         VA         BVA        FA
  0 C      6.1884     6.0000    -0.1884     3.1433     3.1433    -0.0000
  1 H      0.8125     1.0000     0.1875     0.9080     0.9080     0.0000
  2 C      6.1878     6.0000    -0.1878     3.1437     3.1437     0.0000
  3 H      0.8123     1.0000     0.1877     0.9079     0.9079    -0.0000
  4 C      6.1865     6.0000    -0.1865     3.1442     3.1442     0.0000
  5 H      0.8126     1.0000     0.1874     0.9080     0.9080     0.0000
  6 C      6.1885     6.0000    -0.1885     3.1452     3.1452     0.0000
  7 H      0.8123     1.0000     0.1877     0.9079     0.9079    -0.0000
  8 C      6.1879     6.0000    -0.1879     3.1450     3.1450    -0.0000
  9 H      0.8121     1.0000     0.1879     0.9078     0.9078    -0.0000
 10 C      6.1865     6.0000    -0.1865     3.1435     3.1435    -0.0000
 11 H      0.8126     1.0000     0.1874     0.9080     0.9080     0.0000

  Mayer bond orders larger than 0.1
B(  0-C ,  1-H ) :   0.8784 B(  0-C ,  2-C ) :   1.0160 B(  0-C , 10-C ) :   1.0157 
B(  2-C ,  3-H ) :   0.8782 B(  2-C ,  4-C ) :   1.0160 B(  4-C ,  5-H ) :   0.8783 
B(  4-C ,  6-C ) :   1.0166 B(  6-C ,  7-H ) :   0.8782 B(  6-C ,  8-C ) :   1.0172 
B(  8-C ,  9-H ) :   0.8781 B(  8-C , 10-C ) :   1.0163 B( 10-C , 11-H ) :   0.8783 


-------
TIMINGS
-------

Total SCF time: 0 days 0 hours 0 min 23 sec 

Total time                  ....      23.685 sec
Sum of individual times     ....      23.520 sec  ( 99.3%)

Fock matrix formation       ....      22.053 sec  ( 93.1%)
  XC integration            ....       2.726 sec  ( 12.4% of F)
    Basis function eval.    ....       1.224 sec  ( 44.9% of XC)
    Density eval.           ....       0.178 sec  (  6.5% of XC)
    XC-Functional eval.     ....       0.527 sec  ( 19.3% of XC)
    XC-Potential eval.      ....       0.249 sec  (  9.1% of XC)
Diagonalization             ....       0.011 sec  (  0.0%)
Density matrix formation    ....       0.001 sec  (  0.0%)
Population analysis         ....       0.013 sec  (  0.1%)
Initial guess               ....       0.339 sec  (  1.4%)
Orbital Transformation      ....       0.000 sec  (  0.0%)
Orbital Orthonormalization  ....       0.000 sec  (  0.0%)
DIIS solution               ....       0.000 sec  (  0.0%)
Grid generation             ....       1.103 sec  (  4.7%)


-------------------------------------------------------------------------------
                          DFT DISPERSION CORRECTION                            
                                                                               
                              DFTD3 V3.1  Rev 1                                
                              USING zero damping                               
-------------------------------------------------------------------------------
The omegaB97X-D3 functional is recognized. Fit by Chai et al.
Active option DFTDOPT                   ...         3   

molecular C6(AA) [au] = 2144.225652 


            DFT-D V3
 parameters
 s6 scaling factor         :     1.0000 
 rs6 scaling factor        :     1.2810 
 s8 scaling factor         :     1.0000 
 rs8 scaling factor        :     1.0940 
 Damping factor alpha6     :    14.0000 
 Damping factor alpha8     :    16.0000 
 ad hoc parameters k1-k3   :    16.0000     1.3333    -4.0000 

 Edisp/kcal,au: -1.960811681704  -0.003124751982 
 E6   /kcal   :  -0.723934123 
 E8   /kcal   :  -1.236877559 
 % E8         :  63.079875055 

-------------------------   ----------------
Dispersion correction           -0.003124752
-------------------------   ----------------


-------------------------   --------------------
FINAL SINGLE POINT ENERGY      -231.196414828581
-------------------------   --------------------


                            ***************************************
                            *     ORCA property calculations      *
                            ***************************************

                                    ---------------------
                                    Active property flags
                                    ---------------------
   (+) Dipole Moment


------------------------------------------------------------------------------
                       ORCA ELECTRIC PROPERTIES CALCULATION
------------------------------------------------------------------------------

Dipole Moment Calculation                       ... on
Quadrupole Moment Calculation                   ... off
Polarizability Calculation                      ... off
GBWName                                         ... Scan_18.gbw
Electron density file                           ... Scan_18.scfp.tmp

-------------
DIPOLE MOMENT
-------------
                                X             Y             Z
Electronic contribution:     -0.00146      -0.00007      -0.00001
Nuclear contribution   :     -0.00200      -0.00058       0.00001
                        -----------------------------------------
Total Dipole Moment    :     -0.00346      -0.00066      -0.00001
                        -----------------------------------------
Magnitude (a.u.)       :      0.00353
Magnitude (Debye)      :      0.00896


Timings for individual modules:

Sum of individual times         ...       24.031 sec (=   0.401 min)
GTO integral calculation        ...        0.323 sec (=   0.005 min)   1.3 %
SCF iterations                  ...       23.708 sec (=   0.395 min)  98.7 %
                             ****ORCA TERMINATED NORMALLY****
TOTAL RUN TIME: 0 days 0 hours 0 minutes 24 seconds 372 msec
