
                                 *****************
                                 * O   R   C   A *
                                 *****************

           --- An Ab Initio, DFT and Semiempirical electronic structure package ---

                  #######################################################
                  #                        -***-                        #
                  #  Department of molecular theory and spectroscopy    #
                  #              Directorship: Frank Neese              #
                  # Max Planck Institute for Chemical Energy Conversion #
                  #                  D-45470 Muelheim/Ruhr              #
                  #                       Germany                       #
                  #                                                     #
                  #                  All rights reserved                #
                  #                        -***-                        #
                  #######################################################


                         Program Version 4.0.0.2 - RELEASE -


 With contributions from (in alphabetic order):
   Daniel Aravena         : Magnetic Properties
   Michael Atanasov       : Ab Initio Ligand Field Theory
   Ute Becker             : Parallelization
   Martin Brehm           : Molecular dynamics
   Dmytro Bykov           : SCF Hessian
   Vijay G. Chilkuri      : MRCI spin determinant printing
   Dipayan Datta          : RHF DLPNO-CCSD density
   Achintya Kumar Dutta   : EOM-CC, STEOM-CC
   Dmitry Ganyushin       : Spin-Orbit,Spin-Spin,Magnetic field MRCI
   Yang Guo               : DLPNO-NEVPT2, CIM, IAO-localization
   Andreas Hansen         : Spin unrestricted coupled pair/coupled cluster methods
   Lee Huntington         : MR-EOM, pCC
   Robert Izsak           : Overlap fitted RIJCOSX, COSX-SCS-MP3, EOM
   Christian Kollmar      : KDIIS, OOCD, Brueckner-CCSD(T), CCSD density
   Simone Kossmann        : Meta GGA functionals, TD-DFT gradient, OOMP2, MP2 Hessian
   Martin Krupicka        : AUTO-CI
   Dagmar Lenk            : GEPOL surface
   Dimitrios Liakos       : Extrapolation schemes; parallel MDCI
   Dimitrios Manganas     : ROCIS; embedding schemes
   Dimitrios Pantazis     : SARC Basis sets
   Taras Petrenko         : DFT Hessian,TD-DFT gradient, ASA, ECA, R-Raman, ABS, FL, XAS/XES, NRVS
   Peter Pinski           : DLPNO-MP2
   Christoph Reimann      : Effective Core Potentials
   Marius Retegan         : Local ZFS, SOC
   Christoph Riplinger    : Optimizer, TS searches, QM/MM, DLPNO-CCSD(T), (RO)-DLPNO pert. Triples
   Tobias Risthaus        : Range-separated hybrids, TD-DFT gradient, RPA, STAB
   Michael Roemelt        : Restricted open shell CIS
   Masaaki Saitow         : Open-shell DLPNO
   Barbara Sandhoefer     : DKH picture change effects
   Kantharuban Sivalingam : CASSCF convergence, NEVPT2, FIC-MRCI
   Georgi Stoychev        : AutoAux
   Boris Wezisla          : Elementary symmetry handling
   Frank Wennmohs         : Technical directorship


 We gratefully acknowledge several colleagues who have allowed us to
 interface, adapt or use parts of their codes:
   Stefan Grimme, W. Hujo, H. Kruse,             : VdW corrections, initial TS optimization,
                  C. Bannwarth                     DFT functionals, gCP, sTDA/sTD-DF
   Ed Valeev                                     : LibInt (2-el integral package), F12 methods
   Garnet Chan, S. Sharma, J. Yang, R. Olivares  : DMRG
   Ulf Ekstrom                                   : XCFun DFT Library
   Mihaly Kallay                                 : mrcc  (arbitrary order and MRCC methods)
   Jiri Pittner, Ondrej Demel                    : Mk-CCSD
   Frank Weinhold                                : gennbo (NPA and NBO analysis)
   Christopher J. Cramer and Donald G. Truhlar   : smd solvation model


 Your calculation uses the libint2 library for the computation of 2-el integrals
 For citations please refer to: http://libint.valeyev.net

 This ORCA versions uses:
   CBLAS   interface :  Fast vector & matrix operations
   LAPACKE interface :  Fast linear algebra routines
   SCALAPACK package :  Parallel linear algebra routines


Your calculation utilizes the atom-pairwise dispersion correction
with the zero-damping scheme (D30)
Cite in your paper:
S.Grimme, J.Antony, S.Ehrlich and H.Krieg, J.Chem.Phys., 132, (2010), 154104 
   

XCFun DFT library Copyright 2009-2010 Ulf Ekstrom and contributors.
See http://admol.org/xcfun for more information. This is free soft-
ware; see the source code for copying conditions. There is ABSOLUTELY
NO WARRANTY; not even for MERCHANTABILITY or FITNESS FOR A PARTICULAR
PURPOSE. For details see the documentation. Scientific users of this 
library should cite U. Ekstrom, L. Visscher, R. Bast, A. J. Thorvald-
sen and K. Ruud; J.Chem.Theor.Comp. 2010, DOI: 10.1021/ct100117s
XCFun Version 0.99 
Your calculation utilizes the basis: 6-31G(d)
   H-He, Li-Ne : W. J. Hehre, R. Ditchfield and J.A. Pople, J. Chem. Phys. 56, 2257 (1972).
                 Note: He and Ne are unpublished basis sets taken from the Gaussian program.
                 Note: Li and B from J. D. Dill and J. A. Pople, J. Chem. Phys. 62, 2921 (1975).
   Na - Ar     : M. M. Francl, W. J. Pietro, W. J. Hehre, J. S. Binkley, M. S. Gordon, 
                 D. J. DeFrees and J. A. Pople, J. Chem. Phys. 77, 3654 (1982).
   K - Zn      : V. A. Rassolov, J. A. Pople, M. A. Ratner, and T. L. Windus, J. Chem. Phys. 109, 1223 (1998).

================================================================================
                                        WARNINGS
                       Please study these warnings very carefully!
================================================================================

Warning: TCutStore was < 0. Adjusted to Thresh (uncritical)

INFO   : the flag for use of LIBINT has been found!

================================================================================
                                       INPUT FILE
================================================================================
NAME = initial19.inp
|  1> ! WB97X-D3 6-31G(d) VerySlowConv
|  2> ! KDIIS NOSOSCF
|  3> %base "Scan_19"
|  4> 
|  5> %scf
|  6> maxiter 999
|  7> end
|  8> 
|  9> * xyz 0 1
| 10> C          2.345358552356   -2.912800678282    0.223304077357
| 11> H          3.160638750083   -2.975073945145   -0.505247443402
| 12> C          1.384887528452   -0.909400326563   -0.222451011447
| 13> H          1.845475471216   -0.234014127547    0.506624523068
| 14> C         -0.831185773591   -0.739399614386    0.221200689408
| 15> H         -1.184297984035   -0.002852825855   -0.508913693637
| 16> C         -2.086663896904   -2.573693224134   -0.221489680139
| 17> H         -2.899393436663   -2.510693467220    0.510296378697
| 18> C         -1.124936528942   -4.577248336969    0.221833356901
| 19> H         -1.585906355474   -5.250985683935   -0.508566300245
| 20> C          1.090595080949   -4.745989714250   -0.222335079579
| 21> H          1.444038592552   -5.483958055715    0.505744183018
| 22> **                         ****END OF INPUT****
================================================================================

                       ****************************
                       * Single Point Calculation *
                       ****************************

---------------------------------
CARTESIAN COORDINATES (ANGSTROEM)
---------------------------------
  C      2.345359   -2.912801    0.223304
  H      3.160639   -2.975074   -0.505247
  C      1.384888   -0.909400   -0.222451
  H      1.845475   -0.234014    0.506625
  C     -0.831186   -0.739400    0.221201
  H     -1.184298   -0.002853   -0.508914
  C     -2.086664   -2.573693   -0.221490
  H     -2.899393   -2.510693    0.510296
  C     -1.124937   -4.577248    0.221833
  H     -1.585906   -5.250986   -0.508566
  C      1.090595   -4.745990   -0.222335
  H      1.444039   -5.483958    0.505744

----------------------------
CARTESIAN COORDINATES (A.U.)
----------------------------
  NO LB      ZA    FRAG     MASS         X           Y           Z
   0 C     6.0000    0    12.011    4.432085   -5.504396    0.421984
   1 H     1.0000    0     1.008    5.972742   -5.622075   -0.954779
   2 C     6.0000    0    12.011    2.617058   -1.718518   -0.420371
   3 H     1.0000    0     1.008    3.487443   -0.442223    0.957382
   4 C     6.0000    0    12.011   -1.570713   -1.397263    0.418009
   5 H     1.0000    0     1.008   -2.237999   -0.005391   -0.961708
   6 C     6.0000    0    12.011   -3.943223   -4.863575   -0.418555
   7 H     1.0000    0     1.008   -5.479060   -4.744523    0.964320
   8 C     6.0000    0    12.011   -2.125822   -8.649746    0.419204
   9 H     1.0000    0     1.008   -2.996929   -9.922925   -0.961051
  10 C     6.0000    0    12.011    2.060926   -8.968621   -0.420152
  11 H     1.0000    0     1.008    2.728837  -10.363179    0.955718

--------------------------------
INTERNAL COORDINATES (ANGSTROEM)
--------------------------------
 C      0   0   0     0.000000000000     0.00000000     0.00000000
 H      1   0   0     1.095147058149     0.00000000     0.00000000
 C      1   2   0     2.266013052968   103.58866845     0.00000000
 H      3   1   2     1.095371583468   103.64859647   263.35011943
 C      3   1   2     2.266430663806   116.24756774   150.46338879
 H      5   3   1     1.095562146658   103.59900260   209.58239162
 C      5   3   1     2.266458278497   116.27567796   322.50737121
 H      7   5   3     1.095449273164   103.52975422   150.25710890
 C      7   5   3     2.266205625186   116.24646648    37.41724895
 H      9   7   5     1.095398946881   103.57680085   209.69832421
 C      1   2   3     2.265746602991   103.61639001   121.75732884
 H     11   1   2     1.095271199988   103.63222532    96.57770691

---------------------------
INTERNAL COORDINATES (A.U.)
---------------------------
 C      0   0   0     0.000000000000     0.00000000     0.00000000
 H      1   0   0     2.069528016271     0.00000000     0.00000000
 C      1   2   0     4.282144086000   103.58866845     0.00000000
 H      3   1   2     2.069952307634   103.64859647   263.35011943
 C      3   1   2     4.282933256115   116.24756774   150.46338879
 H      5   3   1     2.070312419874   103.59900260   209.58239162
 C      5   3   1     4.282985440319   116.27567796   322.50737121
 H      7   5   3     2.070099119882   103.52975422   150.25710890
 C      7   5   3     4.282507994753   116.24646648    37.41724895
 H      9   7   5     2.070004016991   103.57680085   209.69832421
 C      1   2   3     4.281640568515   103.61639001   121.75732884
 H     11   1   2     2.069762610348   103.63222532    96.57770691

---------------------
BASIS SET INFORMATION
---------------------
There are 2 groups of distinct atoms

 Group   1 Type C   : 10s4p1d contracted to 3s2p1d pattern {631/31/1}
 Group   2 Type H   : 4s contracted to 2s pattern {31}

Atom   0C    basis set group =>   1
Atom   1H    basis set group =>   2
Atom   2C    basis set group =>   1
Atom   3H    basis set group =>   2
Atom   4C    basis set group =>   1
Atom   5H    basis set group =>   2
Atom   6C    basis set group =>   1
Atom   7H    basis set group =>   2
Atom   8C    basis set group =>   1
Atom   9H    basis set group =>   2
Atom  10C    basis set group =>   1
Atom  11H    basis set group =>   2
------------------------------------------------------------------------------
                           ORCA GTO INTEGRAL CALCULATION
------------------------------------------------------------------------------

                         BASIS SET STATISTICS AND STARTUP INFO

 # of primitive gaussian shells          ...  114
 # of primitive gaussian functions       ...  186
 # of contracted shells                  ...   48
 # of contracted basis functions         ...   96
 Highest angular momentum                ...    2
 Maximum contraction depth               ...    6
 Integral package used                   ... LIBINT
 Integral threshhold            Thresh   ...  1.000e-10
 Primitive cut-off              TCut     ...  1.000e-11


------------------------------ INTEGRAL EVALUATION ----------------------------


 * One electron integrals 
 Pre-screening matrix                    ... done
 Shell pair data                         ... done (   0.001 sec)

-------------------------------------------------------------------------------
                                 ORCA SCF
-------------------------------------------------------------------------------

------------
SCF SETTINGS
------------
Hamiltonian:
 Density Functional     Method          .... DFT(GTOs)
 Exchange Functional    Exchange        .... WB97X-D3
 Correlation Functional Correlation     .... WB97X-D3
 Gradients option       PostSCFGGA      .... off
 Hybrid DFT is turned on
   Fraction HF Exchange ScalHFX         ....  0.195728
   Scaling of DF-GGA-X  ScalDFX         ....  0.000000
   Scaling of DF-GGA-C  ScalDFC         ....  1.000000
   Scaling of DF-LDA-C  ScalLDAC        ....  1.000000
   Perturbative correction              ....  0.000000
 Long-range corrected/Screened/Range-Separated Hybrid DFT is turned on
   Amount of maximum screened exact exchange              ....  0.804272
   Range separation parameter mu (erf(mu*r12)/r12)        ....  0.250000


General Settings:
 Integral files         IntName         .... Scan_19
 Hartree-Fock type      HFTyp           .... RHF
 Total Charge           Charge          ....    0
 Multiplicity           Mult            ....    1
 Number of Electrons    NEL             ....   42
 Basis Dimension        Dim             ....   96
 Nuclear Repulsion      ENuc            ....    137.9264342079 Eh

Convergence Acceleration:
 DIIS                   CNVDIIS         .... on
   Start iteration      DIISMaxIt       ....     0
   Startup error        DIISStart       ....  0.200000
   # of expansion vecs  DIISMaxEq       ....     5
   Bias factor          DIISBfac        ....   1.050
   Max. coefficient     DIISMaxC        ....  10.000
 Newton-Raphson         CNVNR           .... off
 SOSCF                  CNVSOSCF        .... off
 Level Shifting         CNVShift        .... off
 Zerner damping         CNVZerner       .... off
 Static damping         CNVDamp         .... off
 Fernandez-Rico         CNVRico         .... off

SCF Procedure:
 Maximum # iterations   MaxIter         ....   999
 SCF integral mode      SCFMode         .... Direct
   Integral package                     .... LIBINT
 Reset frequeny         DirectResetFreq ....    20
 Integral Threshold     Thresh          ....  1.000e-10 Eh
 Primitive CutOff       TCut            ....  1.000e-11 Eh

Convergence Tolerance:
 Convergence Check Mode ConvCheckMode   .... All-Criteria
 Convergence forced     ConvForced      .... 0
 Energy Change          TolE            ....  1.000e-06 Eh
 Max Density Change     TolMaxP         ....  1.000e-05
 RMS Density Change     TolRMSP         ....  1.000e-06
 DIIS Error             TolErr          ....  1.000e-06


Diagonalization of the overlap matrix:
Smallest eigenvalue                        ... 2.997e-02
Time for diagonalization                   ...    0.002 sec
Threshold for overlap eigenvalues          ... 1.000e-08
Number of eigenvalues below threshold      ... 0
Time for construction of square roots      ...    0.006 sec
Total time needed                          ...    0.008 sec

-------------------
DFT GRID GENERATION
-------------------

General Integration Accuracy     IntAcc      ...  4.340
Radial Grid Type                 RadialGrid  ... Gauss-Chebyshev
Angular Grid (max. acc.)         AngularGrid ... Lebedev-110
Angular grid pruning method      GridPruning ... 3 (G Style)
Weight generation scheme         WeightScheme... Becke
Basis function cutoff            BFCut       ...    1.0000e-10
Integration weight cutoff        WCut        ...    1.0000e-14
Grids for H and He will be reduced by one unit

# of grid points (after initial pruning)     ...  14700 (   0.0 sec)
# of grid points (after weights+screening)   ...  14065 (   0.0 sec)
nearest neighbour list constructed           ...    0.0 sec
Grid point re-assignment to atoms done       ...    0.0 sec
Grid point division into batches done        ...    0.0 sec
Reduced shell lists constructed in    0.2 sec

Total number of grid points                  ...    14065
Total number of batches                      ...      227
Average number of points per batch           ...       61
Average number of grid points per atom       ...     1172
Average number of shells per batch           ...    31.11 (64.80%)
Average number of basis functions per batch  ...    62.73 (65.34%)
Average number of large shells per batch     ...    22.85 (73.46%)
Average number of large basis fcns per batch ...    46.81 (74.62%)
Maximum spatial batch extension              ...  19.18, 20.68, 26.44 au
Average spatial batch extension              ...   4.32,  4.41,  5.26 au

Time for grid setup =    0.237 sec

------------------------------
INITIAL GUESS: MODEL POTENTIAL
------------------------------
Loading Hartree-Fock densities                     ... done
Calculating cut-offs                               ... done
Setting up the integral package                    ... done
Initializing the effective Hamiltonian             ... done
Starting the Coulomb interaction                   ... done (   0.1 sec)
Reading the grid                                   ... done
Mapping shells                                     ... done
Starting the XC term evaluation                    ... done (   0.2 sec)
  promolecular density results
     # of electrons  =     41.997556900
     EX              =    -31.657685841
     EC              =     -1.201207755
     EX+EC           =    -32.858893596
Transforming the Hamiltonian                       ... done (   0.0 sec)
Diagonalizing the Hamiltonian                      ... done (   0.0 sec)
Back transforming the eigenvectors                 ... done (   0.0 sec)
Now organizing SCF variables                       ... done
                      ------------------
                      INITIAL GUESS DONE (   0.6 sec)
                      ------------------
--------------
SCF ITERATIONS
--------------
ITER       Energy         Delta-E        Max-DP      RMS-DP      [F,P]   Gradient Norm
               ***  Starting incremental Fock matrix formation  ***
                             ****Resetting KDIIS****
                             ****Turning on KDIIS(Cayley)****
  0   -231.0472492994   0.000000000000 0.00305450  0.00027258  0.0245928   0.024029473
  1   -231.0509458420  -0.003696542652 0.00470191  0.00047281  0.0216432   0.021595859
  2   -231.0565916188  -0.005645776779 0.00937908  0.00098096  0.0177297   0.017554971
  3   -231.0646977919  -0.008106173039 0.01475973  0.00161163  0.0104510   0.010459484
  4   -231.0695627099  -0.004864918067 0.00238896  0.00015614  0.0014800   0.001139143
  5   -231.0696205325  -0.000057822596 0.00067499  0.00003541  0.0001849   0.000156398
  6   -231.0696219298  -0.000001397314 0.00021938  0.00001211  0.0001174   0.000113122
                          ***Energy convergence achieved***
  7   -231.0696224050  -0.000000475142 0.00010627  0.00000840  0.0000689   0.000033674

            ***Energy convergence in two consecutive cycles with***
                    ***'reasonable' density convergence***
                       *** signaling convergence ***

                    *** KDIIS BlockDiag ( 0.001 sec) ***

               *****************************************************
               *                     SUCCESS                       *
               *           SCF CONVERGED AFTER   8 CYCLES          *
               *****************************************************

Setting up the final grid:

General Integration Accuracy     IntAcc      ...  4.670
Radial Grid Type                 RadialGrid  ... Gauss-Chebyshev
Angular Grid (max. acc.)         AngularGrid ... Lebedev-302
Angular grid pruning method      GridPruning ... 3 (G Style)
Weight generation scheme         WeightScheme... Becke
Basis function cutoff            BFCut       ...    1.0000e-10
Integration weight cutoff        WCut        ...    1.0000e-14
Grids for H and He will be reduced by one unit

# of grid points (after initial pruning)     ...  57636 (   0.0 sec)
# of grid points (after weights+screening)   ...  54743 (   0.1 sec)
nearest neighbour list constructed           ...    0.0 sec
Grid point re-assignment to atoms done       ...    0.0 sec
Grid point division into batches done        ...    0.2 sec
Reduced shell lists constructed in    0.8 sec

Total number of grid points                  ...    54743
Total number of batches                      ...      862
Average number of points per batch           ...       63
Average number of grid points per atom       ...     4562
Average number of shells per batch           ...    27.90 (58.14%)
Average number of basis functions per batch  ...    55.70 (58.02%)
Average number of large shells per batch     ...    19.69 (70.57%)
Average number of large basis fcns per batch ...    40.38 (72.50%)
Maximum spatial batch extension              ...  18.15, 20.38, 23.15 au
Average spatial batch extension              ...   2.85,  2.92,  3.06 au

Final grid set up in    0.9 sec
Final integration                            ... done (   0.6 sec)
Change in XC energy                          ...    -0.000938383
Integrated number of electrons               ...    41.999993355
Previous integrated no of electrons          ...    42.001103712

----------------
TOTAL SCF ENERGY
----------------

Total Energy       :         -231.07056089 Eh           -6287.74962 eV

Components:
Nuclear Repulsion  :          137.92643421 Eh            3753.16908 eV
Electronic Energy  :         -368.99699510 Eh          -10040.91871 eV
One Electron Energy:         -582.44597420 Eh          -15849.16071 eV
Two Electron Energy:          213.44897909 Eh            5808.24201 eV

Virial components:
Potential Energy   :         -459.15142363 Eh          -12494.14543 eV
Kinetic Energy     :          228.08086274 Eh            6206.39580 eV
Virial Ratio       :            2.01310806


DFT components:
N(Alpha)           :       20.999996677575 electrons
N(Beta)            :       20.999996677575 electrons
N(Total)           :       41.999993355150 electrons
E(XC)              :      -22.784130272291 Eh       

---------------
SCF CONVERGENCE
---------------

  Last Energy change         ...   -1.0491e-07  Tolerance :   1.0000e-06
  Last MAX-Density change    ...    3.1237e-05  Tolerance :   1.0000e-05
  Last RMS-Density change    ...    2.1173e-06  Tolerance :   1.0000e-06
  Last DIIS Error            ...    1.5696e-05  Tolerance :   1.0000e-06

             **** THE GBW FILE WAS UPDATED (Scan_19.gbw) ****
             **** DENSITY FILE WAS UPDATED (Scan_19.scfp.tmp) ****
             **** ENERGY FILE WAS UPDATED (Scan_19.en.tmp) ****
----------------
ORBITAL ENERGIES
----------------

  NO   OCC          E(Eh)            E(eV) 
   0   2.0000     -10.393282      -282.8156 
   1   2.0000     -10.393206      -282.8135 
   2   2.0000     -10.393171      -282.8126 
   3   2.0000     -10.393156      -282.8122 
   4   2.0000     -10.393131      -282.8115 
   5   2.0000     -10.393108      -282.8109 
   6   2.0000      -0.776386       -21.1265 
   7   2.0000      -0.754911       -20.5422 
   8   2.0000      -0.754870       -20.5410 
   9   2.0000      -0.708938       -19.2912 
  10   2.0000      -0.708903       -19.2902 
  11   2.0000      -0.682180       -18.5631 
  12   2.0000      -0.450643       -12.2626 
  13   2.0000      -0.421270       -11.4633 
  14   2.0000      -0.421188       -11.4611 
  15   2.0000      -0.391633       -10.6569 
  16   2.0000      -0.391472       -10.6525 
  17   2.0000      -0.372417       -10.1340 
  18   2.0000      -0.359464        -9.7815 
  19   2.0000      -0.278221        -7.5708 
  20   2.0000      -0.278075        -7.5668 
  21   0.0000      -0.058494        -1.5917 
  22   0.0000      -0.058481        -1.5913 
  23   0.0000      -0.023554        -0.6409 
  24   0.0000       0.046050         1.2531 
  25   0.0000       0.046271         1.2591 
  26   0.0000       0.061245         1.6666 
  27   0.0000       0.075741         2.0610 
  28   0.0000       0.075787         2.0623 
  29   0.0000       0.132771         3.6129 
  30   0.0000       0.223846         6.0912 
  31   0.0000       0.243214         6.6182 
  32   0.0000       0.243419         6.6238 
  33   0.0000       0.244189         6.6447 
  34   0.0000       0.252090         6.8597 
  35   0.0000       0.252340         6.8665 
  36   0.0000       0.578713        15.7476 
  37   0.0000       0.586885        15.9700 
  38   0.0000       0.627478        17.0745 
  39   0.0000       0.627853        17.0848 
  40   0.0000       0.640484        17.4285 
  41   0.0000       0.640525        17.4296 
  42   0.0000       0.660582        17.9753 
  43   0.0000       0.661199        17.9921 
  44   0.0000       0.704451        19.1691 
  45   0.0000       0.710881        19.3440 
  46   0.0000       0.730808        19.8863 
  47   0.0000       0.731052        19.8929 
  48   0.0000       0.788884        21.4666 
  49   0.0000       0.824839        22.4450 
  50   0.0000       0.825001        22.4494 
  51   0.0000       0.834856        22.7176 
  52   0.0000       0.862280        23.4638 
  53   0.0000       0.862779        23.4774 
  54   0.0000       0.881577        23.9889 
  55   0.0000       0.978526        26.6270 
  56   0.0000       1.002590        27.2819 
  57   0.0000       1.003163        27.2975 
  58   0.0000       1.008495        27.4425 
  59   0.0000       1.008654        27.4469 
  60   0.0000       1.036743        28.2112 
  61   0.0000       1.037458        28.2307 
  62   0.0000       1.046538        28.4777 
  63   0.0000       1.084314        29.5057 
  64   0.0000       1.084427        29.5088 
  65   0.0000       1.295895        35.2631 
  66   0.0000       1.637273        44.5525 
  67   0.0000       1.708656        46.4949 
  68   0.0000       1.708746        46.4974 
  69   0.0000       1.716919        46.7197 
  70   0.0000       1.717034        46.7229 
  71   0.0000       1.744015        47.4571 
  72   0.0000       1.744361        47.4665 
  73   0.0000       1.761746        47.9395 
  74   0.0000       1.761925        47.9444 
  75   0.0000       1.815506        49.4024 
  76   0.0000       1.815756        49.4092 
  77   0.0000       1.816308        49.4242 
  78   0.0000       1.828625        49.7594 
  79   0.0000       1.829098        49.7723 
  80   0.0000       1.836019        49.9606 
  81   0.0000       1.850861        50.3645 
  82   0.0000       1.850965        50.3673 
  83   0.0000       1.873970        50.9933 
  84   0.0000       2.047724        55.7214 
  85   0.0000       2.071532        56.3693 
  86   0.0000       2.071855        56.3780 
  87   0.0000       2.110692        57.4348 
  88   0.0000       2.111122        57.4465 
  89   0.0000       2.147047        58.4241 
  90   0.0000       2.228238        60.6335 
  91   0.0000       2.251730        61.2727 
  92   0.0000       2.252096        61.2827 
  93   0.0000       2.278923        62.0127 
  94   0.0000       2.279571        62.0303 
  95   0.0000       2.285731        62.1979 

                    ********************************
                    * MULLIKEN POPULATION ANALYSIS *
                    ********************************

-----------------------
MULLIKEN ATOMIC CHARGES
-----------------------
   0 C :   -0.185715
   1 H :    0.184583
   2 C :   -0.184677
   3 H :    0.184550
   4 C :   -0.183000
   5 H :    0.184098
   6 C :   -0.185524
   7 H :    0.184585
   8 C :   -0.184597
   9 H :    0.184601
  10 C :   -0.183051
  11 H :    0.184147
Sum of atomic charges:   -0.0000000

--------------------------------
MULLIKEN REDUCED ORBITAL CHARGES
--------------------------------
  0 C s       :     3.754682  s :     3.754682
      pz      :     0.771158  p :     2.415070
      px      :     0.728242
      py      :     0.915670
      dz2     :     0.000709  d :     0.015963
      dxz     :     0.009201
      dyz     :     0.001274
      dx2y2   :     0.004038
      dxy     :     0.000741
  1 H s       :     0.815417  s :     0.815417
  2 C s       :     3.754712  s :     3.754712
      pz      :     0.771355  p :     2.414041
      px      :     0.855562
      py      :     0.787124
      dz2     :     0.000716  d :     0.015924
      dxz     :     0.003755
      dyz     :     0.006691
      dx2y2   :     0.001122
      dxy     :     0.003639
  3 H s       :     0.815450  s :     0.815450
  4 C s       :     3.754761  s :     3.754761
      pz      :     0.771982  p :     2.412338
      px      :     0.879239
      py      :     0.761117
      dz2     :     0.000722  d :     0.015901
      dxz     :     0.002708
      dyz     :     0.007707
      dx2y2   :     0.002018
      dxy     :     0.002745
  5 H s       :     0.815902  s :     0.815902
  6 C s       :     3.755075  s :     3.755075
      pz      :     0.773196  p :     2.414490
      px      :     0.725527
      py      :     0.915768
      dz2     :     0.000739  d :     0.015958
      dxz     :     0.009209
      dyz     :     0.001271
      dx2y2   :     0.003995
      dxy     :     0.000744
  7 H s       :     0.815415  s :     0.815415
  8 C s       :     3.754776  s :     3.754776
      pz      :     0.772429  p :     2.413893
      px      :     0.855605
      py      :     0.785859
      dz2     :     0.000729  d :     0.015928
      dxz     :     0.003770
      dyz     :     0.006681
      dx2y2   :     0.001116
      dxy     :     0.003632
  9 H s       :     0.815399  s :     0.815399
 10 C s       :     3.754407  s :     3.754407
      pz      :     0.770779  p :     2.412734
      px      :     0.879320
      py      :     0.762636
      dz2     :     0.000705  d :     0.015910
      dxz     :     0.002707
      dyz     :     0.007708
      dx2y2   :     0.002031
      dxy     :     0.002759
 11 H s       :     0.815853  s :     0.815853


                     *******************************
                     * LOEWDIN POPULATION ANALYSIS *
                     *******************************

----------------------
LOEWDIN ATOMIC CHARGES
----------------------
   0 C :   -0.131854
   1 H :    0.130928
   2 C :   -0.131293
   3 H :    0.131270
   4 C :   -0.130460
   5 H :    0.131266
   6 C :   -0.131656
   7 H :    0.130945
   8 C :   -0.131227
   9 H :    0.131303
  10 C :   -0.130488
  11 H :    0.131267

-------------------------------
LOEWDIN REDUCED ORBITAL CHARGES
-------------------------------
  0 C s       :     3.538478  s :     3.538478
      pz      :     0.826421  p :     2.570402
      px      :     0.795149
      py      :     0.948831
      dz2     :     0.001183  d :     0.022975
      dxz     :     0.012908
      dyz     :     0.001451
      dx2y2   :     0.005761
      dxy     :     0.001671
  1 H s       :     0.869072  s :     0.869072
  2 C s       :     3.538793  s :     3.538793
      pz      :     0.826603  p :     2.569568
      px      :     0.899498
      py      :     0.843467
      dz2     :     0.001191  d :     0.022932
      dxz     :     0.005043
      dyz     :     0.009285
      dx2y2   :     0.002144
      dxy     :     0.005268
  3 H s       :     0.868730  s :     0.868730
  4 C s       :     3.539162  s :     3.539162
      pz      :     0.827305  p :     2.568381
      px      :     0.919101
      py      :     0.821974
      dz2     :     0.001203  d :     0.022917
      dxz     :     0.003533
      dyz     :     0.010771
      dx2y2   :     0.003253
      dxy     :     0.004158
  5 H s       :     0.868734  s :     0.868734
  6 C s       :     3.538997  s :     3.538997
      pz      :     0.828645  p :     2.569695
      px      :     0.792152
      py      :     0.948898
      dz2     :     0.001227  d :     0.022964
      dxz     :     0.012917
      dyz     :     0.001446
      dx2y2   :     0.005700
      dxy     :     0.001674
  7 H s       :     0.869055  s :     0.869055
  8 C s       :     3.538854  s :     3.538854
      pz      :     0.827768  p :     2.569436
      px      :     0.899587
      py      :     0.842081
      dz2     :     0.001211  d :     0.022937
      dxz     :     0.005065
      dyz     :     0.009269
      dx2y2   :     0.002135
      dxy     :     0.005257
  9 H s       :     0.868697  s :     0.868697
 10 C s       :     3.538662  s :     3.538662
      pz      :     0.825989  p :     2.568892
      px      :     0.919244
      py      :     0.823658
      dz2     :     0.001177  d :     0.022934
      dxz     :     0.003531
      dyz     :     0.010775
      dx2y2   :     0.003273
      dxy     :     0.004178
 11 H s       :     0.868733  s :     0.868733


                      *****************************
                      * MAYER POPULATION ANALYSIS *
                      *****************************

  NA   - Mulliken gross atomic population
  ZA   - Total nuclear charge
  QA   - Mulliken gross atomic charge
  VA   - Mayer's total valence
  BVA  - Mayer's bonded valence
  FA   - Mayer's free valence

  ATOM       NA         ZA         QA         VA         BVA        FA
  0 C      6.1857     6.0000    -0.1857     2.8629     2.8629    -0.0000
  1 H      0.8154     1.0000     0.1846     0.9101     0.9101    -0.0000
  2 C      6.1847     6.0000    -0.1847     2.8620     2.8620     0.0000
  3 H      0.8154     1.0000     0.1846     0.9103     0.9103     0.0000
  4 C      6.1830     6.0000    -0.1830     2.8608     2.8608     0.0000
  5 H      0.8159     1.0000     0.1841     0.9105     0.9105     0.0000
  6 C      6.1855     6.0000    -0.1855     2.8611     2.8611     0.0000
  7 H      0.8154     1.0000     0.1846     0.9102     0.9102     0.0000
  8 C      6.1846     6.0000    -0.1846     2.8616     2.8616    -0.0000
  9 H      0.8154     1.0000     0.1846     0.9103     0.9103    -0.0000
 10 C      6.1831     6.0000    -0.1831     2.8622     2.8622    -0.0000
 11 H      0.8159     1.0000     0.1841     0.9105     0.9105    -0.0000

  Mayer bond orders larger than 0.1
B(  0-C ,  1-H ) :   0.8846 B(  0-C ,  2-C ) :   0.8731 B(  0-C , 10-C ) :   0.8727 
B(  2-C ,  3-H ) :   0.8848 B(  2-C ,  4-C ) :   0.8717 B(  4-C ,  5-H ) :   0.8850 
B(  4-C ,  6-C ) :   0.8717 B(  6-C ,  7-H ) :   0.8846 B(  6-C ,  8-C ) :   0.8724 
B(  8-C ,  9-H ) :   0.8848 B(  8-C , 10-C ) :   0.8720 B( 10-C , 11-H ) :   0.8850 


-------
TIMINGS
-------

Total SCF time: 0 days 0 hours 0 min 21 sec 

Total time                  ....      21.583 sec
Sum of individual times     ....      21.432 sec  ( 99.3%)

Fock matrix formation       ....      19.976 sec  ( 92.6%)
  XC integration            ....       2.377 sec  ( 11.9% of F)
    Basis function eval.    ....       1.165 sec  ( 49.0% of XC)
    Density eval.           ....       0.168 sec  (  7.1% of XC)
    XC-Functional eval.     ....       0.544 sec  ( 22.9% of XC)
    XC-Potential eval.      ....       0.229 sec  (  9.6% of XC)
Diagonalization             ....       0.010 sec  (  0.0%)
Density matrix formation    ....       0.001 sec  (  0.0%)
Population analysis         ....       0.013 sec  (  0.1%)
Initial guess               ....       0.324 sec  (  1.5%)
Orbital Transformation      ....       0.000 sec  (  0.0%)
Orbital Orthonormalization  ....       0.000 sec  (  0.0%)
DIIS solution               ....       0.000 sec  (  0.0%)
Grid generation             ....       1.107 sec  (  5.1%)


-------------------------------------------------------------------------------
                          DFT DISPERSION CORRECTION                            
                                                                               
                              DFTD3 V3.1  Rev 1                                
                              USING zero damping                               
-------------------------------------------------------------------------------
The omegaB97X-D3 functional is recognized. Fit by Chai et al.
Active option DFTDOPT                   ...         3   

molecular C6(AA) [au] = 2407.615919 


            DFT-D V3
 parameters
 s6 scaling factor         :     1.0000 
 rs6 scaling factor        :     1.2810 
 s8 scaling factor         :     1.0000 
 rs8 scaling factor        :     1.0940 
 Damping factor alpha6     :    14.0000 
 Damping factor alpha8     :    16.0000 
 ad hoc parameters k1-k3   :    16.0000     1.3333    -4.0000 

 Edisp/kcal,au: -2.118411180201  -0.003375902742 
 E6   /kcal   :  -0.839853889 
 E8   /kcal   :  -1.278557291 
 % E8         :  60.354538498 

-------------------------   ----------------
Dispersion correction           -0.003375903
-------------------------   ----------------


-------------------------   --------------------
FINAL SINGLE POINT ENERGY      -231.073936795840
-------------------------   --------------------


                            ***************************************
                            *     ORCA property calculations      *
                            ***************************************

                                    ---------------------
                                    Active property flags
                                    ---------------------
   (+) Dipole Moment


------------------------------------------------------------------------------
                       ORCA ELECTRIC PROPERTIES CALCULATION
------------------------------------------------------------------------------

Dipole Moment Calculation                       ... on
Quadrupole Moment Calculation                   ... off
Polarizability Calculation                      ... off
GBWName                                         ... Scan_19.gbw
Electron density file                           ... Scan_19.scfp.tmp

-------------
DIPOLE MOMENT
-------------
                                X             Y             Z
Electronic contribution:     -0.00204      -0.00091      -0.00005
Nuclear contribution   :      0.00216       0.00083      -0.00011
                        -----------------------------------------
Total Dipole Moment    :      0.00012      -0.00008      -0.00016
                        -----------------------------------------
Magnitude (a.u.)       :      0.00022
Magnitude (Debye)      :      0.00055


Timings for individual modules:

Sum of individual times         ...       21.936 sec (=   0.366 min)
GTO integral calculation        ...        0.327 sec (=   0.005 min)   1.5 %
SCF iterations                  ...       21.608 sec (=   0.360 min)  98.5 %
                             ****ORCA TERMINATED NORMALLY****
TOTAL RUN TIME: 0 days 0 hours 0 minutes 22 seconds 264 msec
