
                                 *****************
                                 * O   R   C   A *
                                 *****************

           --- An Ab Initio, DFT and Semiempirical electronic structure package ---

                  #######################################################
                  #                        -***-                        #
                  #  Department of molecular theory and spectroscopy    #
                  #              Directorship: Frank Neese              #
                  # Max Planck Institute for Chemical Energy Conversion #
                  #                  D-45470 Muelheim/Ruhr              #
                  #                       Germany                       #
                  #                                                     #
                  #                  All rights reserved                #
                  #                        -***-                        #
                  #######################################################


                         Program Version 4.0.0.2 - RELEASE -


 With contributions from (in alphabetic order):
   Daniel Aravena         : Magnetic Properties
   Michael Atanasov       : Ab Initio Ligand Field Theory
   Ute Becker             : Parallelization
   Martin Brehm           : Molecular dynamics
   Dmytro Bykov           : SCF Hessian
   Vijay G. Chilkuri      : MRCI spin determinant printing
   Dipayan Datta          : RHF DLPNO-CCSD density
   Achintya Kumar Dutta   : EOM-CC, STEOM-CC
   Dmitry Ganyushin       : Spin-Orbit,Spin-Spin,Magnetic field MRCI
   Yang Guo               : DLPNO-NEVPT2, CIM, IAO-localization
   Andreas Hansen         : Spin unrestricted coupled pair/coupled cluster methods
   Lee Huntington         : MR-EOM, pCC
   Robert Izsak           : Overlap fitted RIJCOSX, COSX-SCS-MP3, EOM
   Christian Kollmar      : KDIIS, OOCD, Brueckner-CCSD(T), CCSD density
   Simone Kossmann        : Meta GGA functionals, TD-DFT gradient, OOMP2, MP2 Hessian
   Martin Krupicka        : AUTO-CI
   Dagmar Lenk            : GEPOL surface
   Dimitrios Liakos       : Extrapolation schemes; parallel MDCI
   Dimitrios Manganas     : ROCIS; embedding schemes
   Dimitrios Pantazis     : SARC Basis sets
   Taras Petrenko         : DFT Hessian,TD-DFT gradient, ASA, ECA, R-Raman, ABS, FL, XAS/XES, NRVS
   Peter Pinski           : DLPNO-MP2
   Christoph Reimann      : Effective Core Potentials
   Marius Retegan         : Local ZFS, SOC
   Christoph Riplinger    : Optimizer, TS searches, QM/MM, DLPNO-CCSD(T), (RO)-DLPNO pert. Triples
   Tobias Risthaus        : Range-separated hybrids, TD-DFT gradient, RPA, STAB
   Michael Roemelt        : Restricted open shell CIS
   Masaaki Saitow         : Open-shell DLPNO
   Barbara Sandhoefer     : DKH picture change effects
   Kantharuban Sivalingam : CASSCF convergence, NEVPT2, FIC-MRCI
   Georgi Stoychev        : AutoAux
   Boris Wezisla          : Elementary symmetry handling
   Frank Wennmohs         : Technical directorship


 We gratefully acknowledge several colleagues who have allowed us to
 interface, adapt or use parts of their codes:
   Stefan Grimme, W. Hujo, H. Kruse,             : VdW corrections, initial TS optimization,
                  C. Bannwarth                     DFT functionals, gCP, sTDA/sTD-DF
   Ed Valeev                                     : LibInt (2-el integral package), F12 methods
   Garnet Chan, S. Sharma, J. Yang, R. Olivares  : DMRG
   Ulf Ekstrom                                   : XCFun DFT Library
   Mihaly Kallay                                 : mrcc  (arbitrary order and MRCC methods)
   Jiri Pittner, Ondrej Demel                    : Mk-CCSD
   Frank Weinhold                                : gennbo (NPA and NBO analysis)
   Christopher J. Cramer and Donald G. Truhlar   : smd solvation model


 Your calculation uses the libint2 library for the computation of 2-el integrals
 For citations please refer to: http://libint.valeyev.net

 This ORCA versions uses:
   CBLAS   interface :  Fast vector & matrix operations
   LAPACKE interface :  Fast linear algebra routines
   SCALAPACK package :  Parallel linear algebra routines


Your calculation utilizes the atom-pairwise dispersion correction
with the zero-damping scheme (D30)
Cite in your paper:
S.Grimme, J.Antony, S.Ehrlich and H.Krieg, J.Chem.Phys., 132, (2010), 154104 
   

XCFun DFT library Copyright 2009-2010 Ulf Ekstrom and contributors.
See http://admol.org/xcfun for more information. This is free soft-
ware; see the source code for copying conditions. There is ABSOLUTELY
NO WARRANTY; not even for MERCHANTABILITY or FITNESS FOR A PARTICULAR
PURPOSE. For details see the documentation. Scientific users of this 
library should cite U. Ekstrom, L. Visscher, R. Bast, A. J. Thorvald-
sen and K. Ruud; J.Chem.Theor.Comp. 2010, DOI: 10.1021/ct100117s
XCFun Version 0.99 
Your calculation utilizes the basis: 6-31G(d)
   H-He, Li-Ne : W. J. Hehre, R. Ditchfield and J.A. Pople, J. Chem. Phys. 56, 2257 (1972).
                 Note: He and Ne are unpublished basis sets taken from the Gaussian program.
                 Note: Li and B from J. D. Dill and J. A. Pople, J. Chem. Phys. 62, 2921 (1975).
   Na - Ar     : M. M. Francl, W. J. Pietro, W. J. Hehre, J. S. Binkley, M. S. Gordon, 
                 D. J. DeFrees and J. A. Pople, J. Chem. Phys. 77, 3654 (1982).
   K - Zn      : V. A. Rassolov, J. A. Pople, M. A. Ratner, and T. L. Windus, J. Chem. Phys. 109, 1223 (1998).

================================================================================
                                        WARNINGS
                       Please study these warnings very carefully!
================================================================================

Warning: TCutStore was < 0. Adjusted to Thresh (uncritical)

INFO   : the flag for use of LIBINT has been found!

================================================================================
                                       INPUT FILE
================================================================================
NAME = initial2.inp
|  1> ! WB97X-D3 6-31G(d) VerySlowConv
|  2> ! KDIIS NOSOSCF
|  3> %base "Scan_2"
|  4> 
|  5> %scf
|  6> maxiter 999
|  7> end
|  8> 
|  9> * xyz 0 1
| 10> C          1.271118758674   -2.830377542784   -0.000000000000
| 11> H          2.385243180463   -2.915670472659   -0.000000000000
| 12> C          0.776164694859   -1.798355209366   -0.000000000000
| 13> H          1.407092750697   -0.876141621668    0.000000000000
| 14> C         -0.365069902187   -1.710986815535   -0.000000000000
| 15> H         -0.848266266945   -0.703480303524   -0.000000000000
| 16> C         -1.011350425180   -2.655640790107   -0.000000000000
| 17> H         -2.125474846899   -2.570347859376   -0.000000000000
| 18> C         -0.516396360988   -3.687663124132   -0.000000000000
| 19> H         -1.147324416439   -4.609876712162   -0.000000000000
| 20> C          0.624838235314   -3.775031518017    0.000000000000
| 21> H          1.108034598631   -4.782538030671    0.000000000000
| 22> **                         ****END OF INPUT****
================================================================================

                       ****************************
                       * Single Point Calculation *
                       ****************************

---------------------------------
CARTESIAN COORDINATES (ANGSTROEM)
---------------------------------
  C      1.271119   -2.830378   -0.000000
  H      2.385243   -2.915670   -0.000000
  C      0.776165   -1.798355   -0.000000
  H      1.407093   -0.876142    0.000000
  C     -0.365070   -1.710987   -0.000000
  H     -0.848266   -0.703480   -0.000000
  C     -1.011350   -2.655641   -0.000000
  H     -2.125475   -2.570348   -0.000000
  C     -0.516396   -3.687663   -0.000000
  H     -1.147324   -4.609877   -0.000000
  C      0.624838   -3.775032    0.000000
  H      1.108035   -4.782538    0.000000

----------------------------
CARTESIAN COORDINATES (A.U.)
----------------------------
  NO LB      ZA    FRAG     MASS         X           Y           Z
   0 C     6.0000    0    12.011    2.402066   -5.348638   -0.000000
   1 H     1.0000    0     1.008    4.507456   -5.509819   -0.000000
   2 C     6.0000    0    12.011    1.466739   -3.398399   -0.000000
   3 H     1.0000    0     1.008    2.659020   -1.655668    0.000000
   4 C     6.0000    0    12.011   -0.689882   -3.233297   -0.000000
   5 H     1.0000    0     1.008   -1.602991   -1.329385   -0.000000
   6 C     6.0000    0    12.011   -1.911175   -5.018434   -0.000000
   7 H     1.0000    0     1.008   -4.016565   -4.857254   -0.000000
   8 C     6.0000    0    12.011   -0.975848   -6.968673   -0.000000
   9 H     1.0000    0     1.008   -2.168129   -8.711404   -0.000000
  10 C     6.0000    0    12.011    1.180773   -7.133776    0.000000
  11 H     1.0000    0     1.008    2.093882   -9.037687    0.000000

--------------------------------
INTERNAL COORDINATES (ANGSTROEM)
--------------------------------
 C      0   0   0     0.000000000000     0.00000000     0.00000000
 H      1   0   0     1.117384495647     0.00000000     0.00000000
 C      1   2   0     1.144573991475   120.00000013     0.00000000
 H      3   1   2     1.117384496482   119.99999984     0.00000000
 C      3   1   2     1.144574000113   120.00000098   180.00000000
 H      5   3   1     1.117384490075   120.00000086   180.00000000
 C      5   3   1     1.144574002009   119.99999847     0.00000000
 H      7   5   3     1.117384495643   119.99999927   180.00000085
 C      7   5   3     1.144573992185   120.00000055     0.00000000
 H      9   7   5     1.117384496537   119.99999986   180.00000085
 C      9   7   5     1.144573999376   120.00000099     0.00000000
 H     11   9   7     1.117384490032   120.00000078   180.00000000

---------------------------
INTERNAL COORDINATES (A.U.)
---------------------------
 C      0   0   0     0.000000000000     0.00000000     0.00000000
 H      1   0   0     2.111550683063     0.00000000     0.00000000
 C      1   2   0     2.162931383896   120.00000013     0.00000000
 H      3   1   2     2.111550684640   119.99999984     0.00000000
 C      3   1   2     2.162931400221   120.00000098   180.00000000
 H      5   3   1     2.111550672533   120.00000086   180.00000000
 C      5   3   1     2.162931403803   119.99999847     0.00000000
 H      7   5   3     2.111550683055   119.99999927   180.00000085
 C      7   5   3     2.162931385239   120.00000055     0.00000000
 H      9   7   5     2.111550684745   119.99999986   180.00000085
 C      9   7   5     2.162931398827   120.00000099     0.00000000
 H     11   9   7     2.111550672451   120.00000078   180.00000000

---------------------
BASIS SET INFORMATION
---------------------
There are 2 groups of distinct atoms

 Group   1 Type C   : 10s4p1d contracted to 3s2p1d pattern {631/31/1}
 Group   2 Type H   : 4s contracted to 2s pattern {31}

Atom   0C    basis set group =>   1
Atom   1H    basis set group =>   2
Atom   2C    basis set group =>   1
Atom   3H    basis set group =>   2
Atom   4C    basis set group =>   1
Atom   5H    basis set group =>   2
Atom   6C    basis set group =>   1
Atom   7H    basis set group =>   2
Atom   8C    basis set group =>   1
Atom   9H    basis set group =>   2
Atom  10C    basis set group =>   1
Atom  11H    basis set group =>   2
------------------------------------------------------------------------------
                           ORCA GTO INTEGRAL CALCULATION
------------------------------------------------------------------------------

                         BASIS SET STATISTICS AND STARTUP INFO

 # of primitive gaussian shells          ...  114
 # of primitive gaussian functions       ...  186
 # of contracted shells                  ...   48
 # of contracted basis functions         ...   96
 Highest angular momentum                ...    2
 Maximum contraction depth               ...    6
 Integral package used                   ... LIBINT
 Integral threshhold            Thresh   ...  1.000e-10
 Primitive cut-off              TCut     ...  1.000e-11


------------------------------ INTEGRAL EVALUATION ----------------------------


 * One electron integrals 
 Pre-screening matrix                    ... done
 Shell pair data                         ... done (   0.001 sec)

-------------------------------------------------------------------------------
                                 ORCA SCF
-------------------------------------------------------------------------------

------------
SCF SETTINGS
------------
Hamiltonian:
 Density Functional     Method          .... DFT(GTOs)
 Exchange Functional    Exchange        .... WB97X-D3
 Correlation Functional Correlation     .... WB97X-D3
 Gradients option       PostSCFGGA      .... off
 Hybrid DFT is turned on
   Fraction HF Exchange ScalHFX         ....  0.195728
   Scaling of DF-GGA-X  ScalDFX         ....  0.000000
   Scaling of DF-GGA-C  ScalDFC         ....  1.000000
   Scaling of DF-LDA-C  ScalLDAC        ....  1.000000
   Perturbative correction              ....  0.000000
 Long-range corrected/Screened/Range-Separated Hybrid DFT is turned on
   Amount of maximum screened exact exchange              ....  0.804272
   Range separation parameter mu (erf(mu*r12)/r12)        ....  0.250000


General Settings:
 Integral files         IntName         .... Scan_2
 Hartree-Fock type      HFTyp           .... RHF
 Total Charge           Charge          ....    0
 Multiplicity           Mult            ....    1
 Number of Electrons    NEL             ....   42
 Basis Dimension        Dim             ....   96
 Nuclear Repulsion      ENuc            ....    239.8325885283 Eh

Convergence Acceleration:
 DIIS                   CNVDIIS         .... on
   Start iteration      DIISMaxIt       ....     0
   Startup error        DIISStart       ....  0.200000
   # of expansion vecs  DIISMaxEq       ....     5
   Bias factor          DIISBfac        ....   1.050
   Max. coefficient     DIISMaxC        ....  10.000
 Newton-Raphson         CNVNR           .... off
 SOSCF                  CNVSOSCF        .... off
 Level Shifting         CNVShift        .... off
 Zerner damping         CNVZerner       .... off
 Static damping         CNVDamp         .... off
 Fernandez-Rico         CNVRico         .... off

SCF Procedure:
 Maximum # iterations   MaxIter         ....   999
 SCF integral mode      SCFMode         .... Direct
   Integral package                     .... LIBINT
 Reset frequeny         DirectResetFreq ....    20
 Integral Threshold     Thresh          ....  1.000e-10 Eh
 Primitive CutOff       TCut            ....  1.000e-11 Eh

Convergence Tolerance:
 Convergence Check Mode ConvCheckMode   .... All-Criteria
 Convergence forced     ConvForced      .... 0
 Energy Change          TolE            ....  1.000e-06 Eh
 Max Density Change     TolMaxP         ....  1.000e-05
 RMS Density Change     TolRMSP         ....  1.000e-06
 DIIS Error             TolErr          ....  1.000e-06


Diagonalization of the overlap matrix:
Smallest eigenvalue                        ... 8.246e-05
Time for diagonalization                   ...    0.003 sec
Threshold for overlap eigenvalues          ... 1.000e-08
Number of eigenvalues below threshold      ... 0
Time for construction of square roots      ...    0.017 sec
Total time needed                          ...    0.020 sec

-------------------
DFT GRID GENERATION
-------------------

General Integration Accuracy     IntAcc      ...  4.340
Radial Grid Type                 RadialGrid  ... Gauss-Chebyshev
Angular Grid (max. acc.)         AngularGrid ... Lebedev-110
Angular grid pruning method      GridPruning ... 3 (G Style)
Weight generation scheme         WeightScheme... Becke
Basis function cutoff            BFCut       ...    1.0000e-10
Integration weight cutoff        WCut        ...    1.0000e-14
Grids for H and He will be reduced by one unit

# of grid points (after initial pruning)     ...  14700 (   0.0 sec)
# of grid points (after weights+screening)   ...  13634 (   0.3 sec)
nearest neighbour list constructed           ...    0.0 sec
Grid point re-assignment to atoms done       ...    0.0 sec
Grid point division into batches done        ...    0.0 sec
Reduced shell lists constructed in    0.4 sec

Total number of grid points                  ...    13634
Total number of batches                      ...      218
Average number of points per batch           ...       62
Average number of grid points per atom       ...     1136
Average number of shells per batch           ...    39.48 (82.26%)
Average number of basis functions per batch  ...    81.93 (85.35%)
Average number of large shells per batch     ...    33.54 (84.94%)
Average number of large basis fcns per batch ...    70.42 (85.94%)
Maximum spatial batch extension              ...  18.59, 20.27, 38.86 au
Average spatial batch extension              ...   3.50,  3.75,  5.22 au

Time for grid setup =    0.879 sec

------------------------------
INITIAL GUESS: MODEL POTENTIAL
------------------------------
Loading Hartree-Fock densities                     ... done
Calculating cut-offs                               ... done
Setting up the integral package                    ... done
Initializing the effective Hamiltonian             ... done
Starting the Coulomb interaction                   ... done (   0.4 sec)
Reading the grid                                   ... done
Mapping shells                                     ... done
Starting the XC term evaluation                    ... done (   0.5 sec)
  promolecular density results
     # of electrons  =     42.007531709
     EX              =    -33.026514878
     EC              =     -1.437128898
     EX+EC           =    -34.463643776
Transforming the Hamiltonian                       ... done (   0.0 sec)
Diagonalizing the Hamiltonian                      ... done (   0.0 sec)
Back transforming the eigenvectors                 ... done (   0.0 sec)
Now organizing SCF variables                       ... done
                      ------------------
                      INITIAL GUESS DONE (   1.9 sec)
                      ------------------
--------------
SCF ITERATIONS
--------------
ITER       Energy         Delta-E        Max-DP      RMS-DP      [F,P]   Gradient Norm
               ***  Starting incremental Fock matrix formation  ***
                             ****Resetting KDIIS****
                             ****Turning on KDIIS(Cayley)****
  0   -231.1273593768   0.000000000000 0.03831172  0.00258393  0.1652830   0.145492395
  1   -231.2928883888  -0.165529011945 0.03548119  0.00260994  0.1365101   0.117520848
  2   -231.4033718445  -0.110483455774 0.04348868  0.00347609  0.1120932   0.095395747
  3   -231.5257458825  -0.122374037924 0.06765155  0.00472081  0.0721621   0.060440785
  4   -231.6047288602  -0.078982977753 0.01027090  0.00079536  0.0108436   0.006392642
  5   -231.6060238324  -0.001294972157 0.01325259  0.00077927  0.0088761   0.002657460
  6   -231.6063433333  -0.000319500914 0.00420456  0.00041321  0.0020912   0.001795986
  7   -231.6064423762  -0.000099042887 0.00034505  0.00003499  0.0003564   0.000304677
  8   -231.6064442821  -0.000001905926 0.00012172  0.00000784  0.0000329   0.000033043
                          ***Energy convergence achieved***
  9   -231.6064443027  -0.000000020639 0.00003621  0.00000265  0.0000145   0.000014222

            ***Energy convergence in two consecutive cycles with***
                    ***'reasonable' density convergence***
                       *** signaling convergence ***

                    *** KDIIS BlockDiag ( 0.002 sec) ***

               *****************************************************
               *                     SUCCESS                       *
               *           SCF CONVERGED AFTER  10 CYCLES          *
               *****************************************************

Setting up the final grid:

General Integration Accuracy     IntAcc      ...  4.670
Radial Grid Type                 RadialGrid  ... Gauss-Chebyshev
Angular Grid (max. acc.)         AngularGrid ... Lebedev-302
Angular grid pruning method      GridPruning ... 3 (G Style)
Weight generation scheme         WeightScheme... Becke
Basis function cutoff            BFCut       ...    1.0000e-10
Integration weight cutoff        WCut        ...    1.0000e-14
Grids for H and He will be reduced by one unit

# of grid points (after initial pruning)     ...  57636 (   0.1 sec)
# of grid points (after weights+screening)   ...  52828 (   0.3 sec)
nearest neighbour list constructed           ...    0.0 sec
Grid point re-assignment to atoms done       ...    0.0 sec
Grid point division into batches done        ...    0.3 sec
Reduced shell lists constructed in    1.4 sec

Total number of grid points                  ...    52828
Total number of batches                      ...      830
Average number of points per batch           ...       63
Average number of grid points per atom       ...     4402
Average number of shells per batch           ...    35.97 (74.93%)
Average number of basis functions per batch  ...    74.66 (77.77%)
Average number of large shells per batch     ...    30.06 (83.59%)
Average number of large basis fcns per batch ...    62.57 (83.81%)
Maximum spatial batch extension              ...  16.33, 19.73, 23.20 au
Average spatial batch extension              ...   2.45,  2.60,  2.92 au

Final grid set up in    1.9 sec
Final integration                            ... done (   1.7 sec)
Change in XC energy                          ...    -0.000156934
Integrated number of electrons               ...    41.999998438
Previous integrated no of electrons          ...    42.006410103

----------------
TOTAL SCF ENERGY
----------------

Total Energy       :         -231.60660124 Eh           -6302.33602 eV

Components:
Nuclear Repulsion  :          239.83258853 Eh            6526.17652 eV
Electronic Energy  :         -471.43918977 Eh          -12828.51254 eV
One Electron Energy:         -785.04437626 Eh          -21362.14351 eV
Two Electron Energy:          313.60518649 Eh            8533.63097 eV

Virial components:
Potential Energy   :         -467.96772051 Eh          -12734.04906 eV
Kinetic Energy     :          236.36111927 Eh            6431.71304 eV
Virial Ratio       :            1.97988452


DFT components:
N(Alpha)           :       20.999999219059 electrons
N(Beta)            :       20.999999219059 electrons
N(Total)           :       41.999998438118 electrons
E(XC)              :      -24.569365570303 Eh       

---------------
SCF CONVERGENCE
---------------

  Last Energy change         ...   -5.7038e-09  Tolerance :   1.0000e-06
  Last MAX-Density change    ...    2.8123e-05  Tolerance :   1.0000e-05
  Last RMS-Density change    ...    1.8737e-06  Tolerance :   1.0000e-06
  Last DIIS Error            ...    3.4612e-06  Tolerance :   1.0000e-06

             **** THE GBW FILE WAS UPDATED (Scan_2.gbw) ****
             **** DENSITY FILE WAS UPDATED (Scan_2.scfp.tmp) ****
             **** ENERGY FILE WAS UPDATED (Scan_2.en.tmp) ****
----------------
ORBITAL ENERGIES
----------------

  NO   OCC          E(Eh)            E(eV) 
   0   2.0000     -10.223070      -278.1839 
   1   2.0000     -10.221266      -278.1348 
   2   2.0000     -10.221070      -278.1295 
   3   2.0000     -10.217397      -278.0295 
   4   2.0000     -10.217198      -278.0241 
   5   2.0000     -10.215434      -277.9761 
   6   2.0000      -1.121939       -30.5295 
   7   2.0000      -0.911270       -24.7969 
   8   2.0000      -0.911188       -24.7947 
   9   2.0000      -0.733984       -19.9727 
  10   2.0000      -0.733742       -19.9661 
  11   2.0000      -0.690224       -18.7819 
  12   2.0000      -0.614600       -16.7241 
  13   2.0000      -0.579152       -15.7595 
  14   2.0000      -0.524721       -14.2784 
  15   2.0000      -0.524569       -14.2742 
  16   2.0000      -0.480857       -13.0848 
  17   2.0000      -0.399019       -10.8579 
  18   2.0000      -0.398620       -10.8470 
  19   2.0000      -0.379571       -10.3287 
  20   2.0000      -0.379313       -10.3216 
  21   0.0000       0.145982         3.9724 
  22   0.0000       0.150871         4.1054 
  23   0.0000       0.151193         4.1142 
  24   0.0000       0.221346         6.0231 
  25   0.0000       0.221938         6.0392 
  26   0.0000       0.314464         8.5570 
  27   0.0000       0.314775         8.5655 
  28   0.0000       0.325352         8.8533 
  29   0.0000       0.412095        11.2137 
  30   0.0000       0.463708        12.6181 
  31   0.0000       0.464285        12.6338 
  32   0.0000       0.509111        13.8536 
  33   0.0000       0.544063        14.8047 
  34   0.0000       0.544875        14.8268 
  35   0.0000       0.574871        15.6430 
  36   0.0000       0.628431        17.1005 
  37   0.0000       0.643734        17.5169 
  38   0.0000       0.644010        17.5244 
  39   0.0000       0.751758        20.4564 
  40   0.0000       0.751996        20.4629 
  41   0.0000       0.771583        20.9958 
  42   0.0000       0.789461        21.4823 
  43   0.0000       0.790374        21.5072 
  44   0.0000       0.800226        21.7753 
  45   0.0000       0.856104        23.2958 
  46   0.0000       0.857089        23.3226 
  47   0.0000       0.857409        23.3313 
  48   0.0000       0.873534        23.7701 
  49   0.0000       0.873717        23.7751 
  50   0.0000       0.929922        25.3045 
  51   0.0000       0.966631        26.3034 
  52   0.0000       0.966812        26.3083 
  53   0.0000       0.994951        27.0740 
  54   0.0000       1.200700        32.6727 
  55   0.0000       1.213313        33.0159 
  56   0.0000       1.213431        33.0191 
  57   0.0000       1.324729        36.0477 
  58   0.0000       1.325507        36.0689 
  59   0.0000       1.366047        37.1720 
  60   0.0000       1.428056        38.8594 
  61   0.0000       1.434751        39.0416 
  62   0.0000       1.435265        39.0555 
  63   0.0000       1.438161        39.1344 
  64   0.0000       1.641595        44.6701 
  65   0.0000       1.642024        44.6817 
  66   0.0000       1.650874        44.9226 
  67   0.0000       1.699660        46.2501 
  68   0.0000       1.699889        46.2563 
  69   0.0000       1.705348        46.4049 
  70   0.0000       1.789465        48.6938 
  71   0.0000       1.789799        48.7029 
  72   0.0000       2.093046        56.9547 
  73   0.0000       2.163098        58.8609 
  74   0.0000       2.249887        61.2225 
  75   0.0000       2.300280        62.5938 
  76   0.0000       2.301390        62.6240 
  77   0.0000       2.470901        67.2366 
  78   0.0000       2.471835        67.2621 
  79   0.0000       2.657491        72.3140 
  80   0.0000       2.659276        72.3626 
  81   0.0000       2.691062        73.2275 
  82   0.0000       2.691572        73.2414 
  83   0.0000       2.719775        74.0088 
  84   0.0000       2.720002        74.0150 
  85   0.0000       2.814586        76.5888 
  86   0.0000       2.888748        78.6068 
  87   0.0000       2.889700        78.6327 
  88   0.0000       3.075889        83.6992 
  89   0.0000       3.336710        90.7965 
  90   0.0000       3.349783        91.1522 
  91   0.0000       3.350899        91.1826 
  92   0.0000       3.569644        97.1350 
  93   0.0000       3.571274        97.1793 
  94   0.0000       3.603185        98.0477 
  95   0.0000       4.522502       123.0635 

                    ********************************
                    * MULLIKEN POPULATION ANALYSIS *
                    ********************************

-----------------------
MULLIKEN ATOMIC CHARGES
-----------------------
   0 C :   -0.137034
   1 H :    0.135389
   2 C :   -0.132246
   3 H :    0.133669
   4 C :   -0.132052
   5 H :    0.132274
   6 C :   -0.137033
   7 H :    0.135389
   8 C :   -0.132247
   9 H :    0.133669
  10 C :   -0.132051
  11 H :    0.132274
Sum of atomic charges:   -0.0000000

--------------------------------
MULLIKEN REDUCED ORBITAL CHARGES
--------------------------------
  0 C s       :     2.997672  s :     2.997672
      pz      :     0.981232  p :     3.074405
      px      :     1.074247
      py      :     1.018926
      dz2     :     0.003490  d :     0.064956
      dxz     :     0.005774
      dyz     :     0.013096
      dx2y2   :     0.023358
      dxy     :     0.019238
  1 H s       :     0.864611  s :     0.864611
  2 C s       :     2.999363  s :     2.999363
      pz      :     0.981187  p :     3.067966
      px      :     1.033426
      py      :     1.053353
      dz2     :     0.003459  d :     0.064917
      dxz     :     0.010768
      dyz     :     0.008121
      dx2y2   :     0.019744
      dxy     :     0.022825
  3 H s       :     0.866331  s :     0.866331
  4 C s       :     2.998536  s :     2.998536
      pz      :     0.980932  p :     3.068523
      px      :     1.027155
      py      :     1.060435
      dz2     :     0.003491  d :     0.064993
      dxz     :     0.011751
      dyz     :     0.007138
      dx2y2   :     0.020852
      dxy     :     0.021761
  5 H s       :     0.867726  s :     0.867726
  6 C s       :     2.997672  s :     2.997672
      pz      :     0.981232  p :     3.074405
      px      :     1.074247
      py      :     1.018926
      dz2     :     0.003490  d :     0.064956
      dxz     :     0.005774
      dyz     :     0.013096
      dx2y2   :     0.023358
      dxy     :     0.019238
  7 H s       :     0.864611  s :     0.864611
  8 C s       :     2.999364  s :     2.999364
      pz      :     0.981187  p :     3.067966
      px      :     1.033426
      py      :     1.053353
      dz2     :     0.003459  d :     0.064917
      dxz     :     0.010768
      dyz     :     0.008121
      dx2y2   :     0.019744
      dxy     :     0.022825
  9 H s       :     0.866331  s :     0.866331
 10 C s       :     2.998535  s :     2.998535
      pz      :     0.980932  p :     3.068523
      px      :     1.027155
      py      :     1.060436
      dz2     :     0.003491  d :     0.064993
      dxz     :     0.011751
      dyz     :     0.007138
      dx2y2   :     0.020852
      dxy     :     0.021761
 11 H s       :     0.867726  s :     0.867726


                     *******************************
                     * LOEWDIN POPULATION ANALYSIS *
                     *******************************

----------------------
LOEWDIN ATOMIC CHARGES
----------------------
   0 C :   -0.125229
   1 H :    0.125145
   2 C :   -0.124985
   3 H :    0.125034
   4 C :   -0.124722
   5 H :    0.124758
   6 C :   -0.125229
   7 H :    0.125145
   8 C :   -0.124985
   9 H :    0.125034
  10 C :   -0.124722
  11 H :    0.124758

-------------------------------
LOEWDIN REDUCED ORBITAL CHARGES
-------------------------------
  0 C s       :     2.786016  s :     2.786016
      pz      :     0.955461  p :     3.155489
      px      :     1.038912
      py      :     1.161117
      dz2     :     0.011663  d :     0.183724
      dxz     :     0.008380
      dyz     :     0.036177
      dx2y2   :     0.074438
      dxy     :     0.053066
  1 H s       :     0.874855  s :     0.874855
  2 C s       :     2.786031  s :     2.786031
      pz      :     0.955611  p :     3.155156
      px      :     1.122197
      py      :     1.077349
      dz2     :     0.011644  d :     0.183797
      dxz     :     0.027368
      dyz     :     0.017211
      dx2y2   :     0.055621
      dxy     :     0.071953
  3 H s       :     0.874966  s :     0.874966
  4 C s       :     2.786030  s :     2.786030
      pz      :     0.955247  p :     3.154938
      px      :     1.139157
      py      :     1.060534
      dz2     :     0.011667  d :     0.183754
      dxz     :     0.031060
      dyz     :     0.013485
      dx2y2   :     0.061376
      dxy     :     0.066166
  5 H s       :     0.875242  s :     0.875242
  6 C s       :     2.786016  s :     2.786016
      pz      :     0.955461  p :     3.155489
      px      :     1.038912
      py      :     1.161117
      dz2     :     0.011663  d :     0.183724
      dxz     :     0.008380
      dyz     :     0.036177
      dx2y2   :     0.074438
      dxy     :     0.053066
  7 H s       :     0.874855  s :     0.874855
  8 C s       :     2.786031  s :     2.786031
      pz      :     0.955611  p :     3.155156
      px      :     1.122197
      py      :     1.077349
      dz2     :     0.011644  d :     0.183797
      dxz     :     0.027368
      dyz     :     0.017211
      dx2y2   :     0.055621
      dxy     :     0.071953
  9 H s       :     0.874966  s :     0.874966
 10 C s       :     2.786030  s :     2.786030
      pz      :     0.955247  p :     3.154938
      px      :     1.139157
      py      :     1.060534
      dz2     :     0.011667  d :     0.183754
      dxz     :     0.031060
      dyz     :     0.013485
      dx2y2   :     0.061376
      dxy     :     0.066166
 11 H s       :     0.875242  s :     0.875242


                      *****************************
                      * MAYER POPULATION ANALYSIS *
                      *****************************

  NA   - Mulliken gross atomic population
  ZA   - Total nuclear charge
  QA   - Mulliken gross atomic charge
  VA   - Mayer's total valence
  BVA  - Mayer's bonded valence
  FA   - Mayer's free valence

  ATOM       NA         ZA         QA         VA         BVA        FA
  0 C      6.1370     6.0000    -0.1370     4.1415     4.1415    -0.0000
  1 H      0.8646     1.0000     0.1354     0.9276     0.9276    -0.0000
  2 C      6.1322     6.0000    -0.1322     4.1409     4.1409     0.0000
  3 H      0.8663     1.0000     0.1337     0.9281     0.9281     0.0000
  4 C      6.1321     6.0000    -0.1321     4.1444     4.1444    -0.0000
  5 H      0.8677     1.0000     0.1323     0.9287     0.9287     0.0000
  6 C      6.1370     6.0000    -0.1370     4.1415     4.1415    -0.0000
  7 H      0.8646     1.0000     0.1354     0.9276     0.9276    -0.0000
  8 C      6.1322     6.0000    -0.1322     4.1409     4.1409     0.0000
  9 H      0.8663     1.0000     0.1337     0.9281     0.9281    -0.0000
 10 C      6.1321     6.0000    -0.1321     4.1444     4.1444    -0.0000
 11 H      0.8677     1.0000     0.1323     0.9287     0.9287     0.0000

  Mayer bond orders larger than 0.1
B(  0-C ,  1-H ) :   0.9009 B(  0-C ,  2-C ) :   1.5404 B(  0-C , 10-C ) :   1.5432 
B(  2-C ,  3-H ) :   0.9015 B(  2-C ,  4-C ) :   1.5420 B(  4-C ,  5-H ) :   0.9016 
B(  4-C ,  6-C ) :   1.5432 B(  6-C ,  7-H ) :   0.9009 B(  6-C ,  8-C ) :   1.5404 
B(  8-C ,  9-H ) :   0.9015 B(  8-C , 10-C ) :   1.5420 B( 10-C , 11-H ) :   0.9016 


-------
TIMINGS
-------

Total SCF time: 0 days 0 hours 1 min 50 sec 

Total time                  ....     110.037 sec
Sum of individual times     ....     109.246 sec  ( 99.3%)

Fock matrix formation       ....     105.080 sec  ( 95.5%)
  XC integration            ....       8.807 sec  (  8.4% of F)
    Basis function eval.    ....       3.951 sec  ( 44.9% of XC)
    Density eval.           ....       0.798 sec  (  9.1% of XC)
    XC-Functional eval.     ....       1.461 sec  ( 16.6% of XC)
    XC-Potential eval.      ....       1.121 sec  ( 12.7% of XC)
Diagonalization             ....       0.146 sec  (  0.1%)
Density matrix formation    ....       0.002 sec  (  0.0%)
Population analysis         ....       0.129 sec  (  0.1%)
Initial guess               ....       1.066 sec  (  1.0%)
Orbital Transformation      ....       0.000 sec  (  0.0%)
Orbital Orthonormalization  ....       0.000 sec  (  0.0%)
DIIS solution               ....       0.000 sec  (  0.0%)
Grid generation             ....       2.824 sec  (  2.6%)


-------------------------------------------------------------------------------
                          DFT DISPERSION CORRECTION                            
                                                                               
                              DFTD3 V3.1  Rev 1                                
                              USING zero damping                               
-------------------------------------------------------------------------------
The omegaB97X-D3 functional is recognized. Fit by Chai et al.
Active option DFTDOPT                   ...         3   

molecular C6(AA) [au] = 1302.886218 


            DFT-D V3
 parameters
 s6 scaling factor         :     1.0000 
 rs6 scaling factor        :     1.2810 
 s8 scaling factor         :     1.0000 
 rs8 scaling factor        :     1.0940 
 Damping factor alpha6     :    14.0000 
 Damping factor alpha8     :    16.0000 
 ad hoc parameters k1-k3   :    16.0000     1.3333    -4.0000 

 Edisp/kcal,au: -1.176195122913  -0.001874386039 
 E6   /kcal   :  -0.379096306 
 E8   /kcal   :  -0.797098817 
 % E8         :  67.769267283 

-------------------------   ----------------
Dispersion correction           -0.001874386
-------------------------   ----------------


-------------------------   --------------------
FINAL SINGLE POINT ENERGY      -231.608475628419
-------------------------   --------------------


                            ***************************************
                            *     ORCA property calculations      *
                            ***************************************

                                    ---------------------
                                    Active property flags
                                    ---------------------
   (+) Dipole Moment


------------------------------------------------------------------------------
                       ORCA ELECTRIC PROPERTIES CALCULATION
------------------------------------------------------------------------------

Dipole Moment Calculation                       ... on
Quadrupole Moment Calculation                   ... off
Polarizability Calculation                      ... off
GBWName                                         ... Scan_2.gbw
Electron density file                           ... Scan_2.scfp.tmp

-------------
DIPOLE MOMENT
-------------
                                X             Y             Z
Electronic contribution:      0.00000       0.00000       0.00000
Nuclear contribution   :     -0.00000      -0.00000       0.00000
                        -----------------------------------------
Total Dipole Moment    :      0.00000       0.00000       0.00000
                        -----------------------------------------
Magnitude (a.u.)       :      0.00000
Magnitude (Debye)      :      0.00000


Timings for individual modules:

Sum of individual times         ...      111.178 sec (=   1.853 min)
GTO integral calculation        ...        1.065 sec (=   0.018 min)   1.0 %
SCF iterations                  ...      110.113 sec (=   1.835 min)  99.0 %
                             ****ORCA TERMINATED NORMALLY****
TOTAL RUN TIME: 0 days 0 hours 1 minutes 52 seconds 689 msec
