
                                 *****************
                                 * O   R   C   A *
                                 *****************

           --- An Ab Initio, DFT and Semiempirical electronic structure package ---

                  #######################################################
                  #                        -***-                        #
                  #  Department of molecular theory and spectroscopy    #
                  #              Directorship: Frank Neese              #
                  # Max Planck Institute for Chemical Energy Conversion #
                  #                  D-45470 Muelheim/Ruhr              #
                  #                       Germany                       #
                  #                                                     #
                  #                  All rights reserved                #
                  #                        -***-                        #
                  #######################################################


                         Program Version 4.0.0.2 - RELEASE -


 With contributions from (in alphabetic order):
   Daniel Aravena         : Magnetic Properties
   Michael Atanasov       : Ab Initio Ligand Field Theory
   Ute Becker             : Parallelization
   Martin Brehm           : Molecular dynamics
   Dmytro Bykov           : SCF Hessian
   Vijay G. Chilkuri      : MRCI spin determinant printing
   Dipayan Datta          : RHF DLPNO-CCSD density
   Achintya Kumar Dutta   : EOM-CC, STEOM-CC
   Dmitry Ganyushin       : Spin-Orbit,Spin-Spin,Magnetic field MRCI
   Yang Guo               : DLPNO-NEVPT2, CIM, IAO-localization
   Andreas Hansen         : Spin unrestricted coupled pair/coupled cluster methods
   Lee Huntington         : MR-EOM, pCC
   Robert Izsak           : Overlap fitted RIJCOSX, COSX-SCS-MP3, EOM
   Christian Kollmar      : KDIIS, OOCD, Brueckner-CCSD(T), CCSD density
   Simone Kossmann        : Meta GGA functionals, TD-DFT gradient, OOMP2, MP2 Hessian
   Martin Krupicka        : AUTO-CI
   Dagmar Lenk            : GEPOL surface
   Dimitrios Liakos       : Extrapolation schemes; parallel MDCI
   Dimitrios Manganas     : ROCIS; embedding schemes
   Dimitrios Pantazis     : SARC Basis sets
   Taras Petrenko         : DFT Hessian,TD-DFT gradient, ASA, ECA, R-Raman, ABS, FL, XAS/XES, NRVS
   Peter Pinski           : DLPNO-MP2
   Christoph Reimann      : Effective Core Potentials
   Marius Retegan         : Local ZFS, SOC
   Christoph Riplinger    : Optimizer, TS searches, QM/MM, DLPNO-CCSD(T), (RO)-DLPNO pert. Triples
   Tobias Risthaus        : Range-separated hybrids, TD-DFT gradient, RPA, STAB
   Michael Roemelt        : Restricted open shell CIS
   Masaaki Saitow         : Open-shell DLPNO
   Barbara Sandhoefer     : DKH picture change effects
   Kantharuban Sivalingam : CASSCF convergence, NEVPT2, FIC-MRCI
   Georgi Stoychev        : AutoAux
   Boris Wezisla          : Elementary symmetry handling
   Frank Wennmohs         : Technical directorship


 We gratefully acknowledge several colleagues who have allowed us to
 interface, adapt or use parts of their codes:
   Stefan Grimme, W. Hujo, H. Kruse,             : VdW corrections, initial TS optimization,
                  C. Bannwarth                     DFT functionals, gCP, sTDA/sTD-DF
   Ed Valeev                                     : LibInt (2-el integral package), F12 methods
   Garnet Chan, S. Sharma, J. Yang, R. Olivares  : DMRG
   Ulf Ekstrom                                   : XCFun DFT Library
   Mihaly Kallay                                 : mrcc  (arbitrary order and MRCC methods)
   Jiri Pittner, Ondrej Demel                    : Mk-CCSD
   Frank Weinhold                                : gennbo (NPA and NBO analysis)
   Christopher J. Cramer and Donald G. Truhlar   : smd solvation model


 Your calculation uses the libint2 library for the computation of 2-el integrals
 For citations please refer to: http://libint.valeyev.net

 This ORCA versions uses:
   CBLAS   interface :  Fast vector & matrix operations
   LAPACKE interface :  Fast linear algebra routines
   SCALAPACK package :  Parallel linear algebra routines


Your calculation utilizes the atom-pairwise dispersion correction
with the zero-damping scheme (D30)
Cite in your paper:
S.Grimme, J.Antony, S.Ehrlich and H.Krieg, J.Chem.Phys., 132, (2010), 154104 
   

XCFun DFT library Copyright 2009-2010 Ulf Ekstrom and contributors.
See http://admol.org/xcfun for more information. This is free soft-
ware; see the source code for copying conditions. There is ABSOLUTELY
NO WARRANTY; not even for MERCHANTABILITY or FITNESS FOR A PARTICULAR
PURPOSE. For details see the documentation. Scientific users of this 
library should cite U. Ekstrom, L. Visscher, R. Bast, A. J. Thorvald-
sen and K. Ruud; J.Chem.Theor.Comp. 2010, DOI: 10.1021/ct100117s
XCFun Version 0.99 
Your calculation utilizes the basis: 6-31G(d)
   H-He, Li-Ne : W. J. Hehre, R. Ditchfield and J.A. Pople, J. Chem. Phys. 56, 2257 (1972).
                 Note: He and Ne are unpublished basis sets taken from the Gaussian program.
                 Note: Li and B from J. D. Dill and J. A. Pople, J. Chem. Phys. 62, 2921 (1975).
   Na - Ar     : M. M. Francl, W. J. Pietro, W. J. Hehre, J. S. Binkley, M. S. Gordon, 
                 D. J. DeFrees and J. A. Pople, J. Chem. Phys. 77, 3654 (1982).
   K - Zn      : V. A. Rassolov, J. A. Pople, M. A. Ratner, and T. L. Windus, J. Chem. Phys. 109, 1223 (1998).

================================================================================
                                        WARNINGS
                       Please study these warnings very carefully!
================================================================================

Warning: TCutStore was < 0. Adjusted to Thresh (uncritical)

INFO   : the flag for use of LIBINT has been found!

================================================================================
                                       INPUT FILE
================================================================================
NAME = initial20.inp
|  1> ! WB97X-D3 6-31G(d) VerySlowConv
|  2> ! KDIIS NOSOSCF
|  3> %base "Scan_20"
|  4> 
|  5> %scf
|  6> maxiter 999
|  7> end
|  8> 
|  9> * xyz 0 1
| 10> C          2.328638234750   -2.910849688922   -0.449078332524
| 11> H          2.135341741498   -2.899416627650   -1.529496599554
| 12> C          1.374835144599   -0.917350427387    0.451070381633
| 13> H          1.258792280272   -1.082978699795    1.531204215471
| 14> C         -0.825467276843   -0.752834216848   -0.457183425729
| 15> H         -0.742051773169   -0.939023991205   -1.535961137401
| 16> C         -2.064177206630   -2.573598210904    0.459327181308
| 17> H         -1.864136228036   -2.592054683241    1.538272116624
| 18> C         -1.113822367855   -4.558655998935   -0.458717743754
| 19> H         -1.004853878551   -4.395928886711   -1.537002302234
| 20> C          1.082398474450   -4.733547020649    0.453802475181
| 21> H          0.993112855515   -4.559871547753    1.533763170978
| 22> **                         ****END OF INPUT****
================================================================================

                       ****************************
                       * Single Point Calculation *
                       ****************************

---------------------------------
CARTESIAN COORDINATES (ANGSTROEM)
---------------------------------
  C      2.328638   -2.910850   -0.449078
  H      2.135342   -2.899417   -1.529497
  C      1.374835   -0.917350    0.451070
  H      1.258792   -1.082979    1.531204
  C     -0.825467   -0.752834   -0.457183
  H     -0.742052   -0.939024   -1.535961
  C     -2.064177   -2.573598    0.459327
  H     -1.864136   -2.592055    1.538272
  C     -1.113822   -4.558656   -0.458718
  H     -1.004854   -4.395929   -1.537002
  C      1.082398   -4.733547    0.453802
  H      0.993113   -4.559872    1.533763

----------------------------
CARTESIAN COORDINATES (A.U.)
----------------------------
  NO LB      ZA    FRAG     MASS         X           Y           Z
   0 C     6.0000    0    12.011    4.400489   -5.500709   -0.848635
   1 H     1.0000    0     1.008    4.035211   -5.479103   -2.890330
   2 C     6.0000    0    12.011    2.598062   -1.733541    0.852399
   3 H     1.0000    0     1.008    2.378773   -2.046533    2.893557
   4 C     6.0000    0    12.011   -1.559907   -1.422650   -0.863951
   5 H     1.0000    0     1.008   -1.402275   -1.774498   -2.902546
   6 C     6.0000    0    12.011   -3.900730   -4.863396    0.868003
   7 H     1.0000    0     1.008   -3.522707   -4.898273    2.906913
   8 C     6.0000    0    12.011   -2.104819   -8.614611   -0.866851
   9 H     1.0000    0     1.008   -1.898899   -8.307102   -2.904513
  10 C     6.0000    0    12.011    2.045437   -8.945108    0.857562
  11 H     1.0000    0     1.008    1.876711   -8.616908    2.898392

--------------------------------
INTERNAL COORDINATES (ANGSTROEM)
--------------------------------
 C      0   0   0     0.000000000000     0.00000000     0.00000000
 H      1   0   0     1.097632853429     0.00000000     0.00000000
 C      1   2   0     2.386220305865   106.99085862     0.00000000
 H      3   1   2     1.098902984791   106.68310730   161.07754923
 C      3   1   2     2.386068169169   106.41564696    47.44852858
 H      5   3   1     1.097900783099   106.99353104   312.97127909
 C      5   3   1     2.385283107938   106.25980150    66.69560732
 H      7   5   3     1.097487680082   107.21298007    46.92142702
 C      7   5   3     2.384624755771   106.29240364   292.78859659
 H      9   7   5     1.095925104088   107.14619101   313.01859653
 C      9   7   5     2.384673144818   106.30627649    67.39986085
 H     11   9   7     1.097474462619   106.85925006    47.17064361

---------------------------
INTERNAL COORDINATES (A.U.)
---------------------------
 C      0   0   0     0.000000000000     0.00000000     0.00000000
 H      1   0   0     2.074225488574     0.00000000     0.00000000
 C      1   2   0     4.509302873286   106.99085862     0.00000000
 H      3   1   2     2.076625689005   106.68310730   161.07754923
 C      3   1   2     4.509015376596   106.41564696    47.44852858
 H      5   3   1     2.074731802274   106.99353104   312.97127909
 C      5   3   1     4.507531825872   106.25980150    66.69560732
 H      7   5   3     2.073951150708   107.21298007    46.92142702
 C      7   5   3     4.506287720577   106.29240364   292.78859659
 H      9   7   5     2.070998310016   107.14619101   313.01859653
 C      9   7   5     4.506379162623   106.30627649    67.39986085
 H     11   9   7     2.073926173322   106.85925006    47.17064361

---------------------
BASIS SET INFORMATION
---------------------
There are 2 groups of distinct atoms

 Group   1 Type C   : 10s4p1d contracted to 3s2p1d pattern {631/31/1}
 Group   2 Type H   : 4s contracted to 2s pattern {31}

Atom   0C    basis set group =>   1
Atom   1H    basis set group =>   2
Atom   2C    basis set group =>   1
Atom   3H    basis set group =>   2
Atom   4C    basis set group =>   1
Atom   5H    basis set group =>   2
Atom   6C    basis set group =>   1
Atom   7H    basis set group =>   2
Atom   8C    basis set group =>   1
Atom   9H    basis set group =>   2
Atom  10C    basis set group =>   1
Atom  11H    basis set group =>   2
------------------------------------------------------------------------------
                           ORCA GTO INTEGRAL CALCULATION
------------------------------------------------------------------------------

                         BASIS SET STATISTICS AND STARTUP INFO

 # of primitive gaussian shells          ...  114
 # of primitive gaussian functions       ...  186
 # of contracted shells                  ...   48
 # of contracted basis functions         ...   96
 Highest angular momentum                ...    2
 Maximum contraction depth               ...    6
 Integral package used                   ... LIBINT
 Integral threshhold            Thresh   ...  1.000e-10
 Primitive cut-off              TCut     ...  1.000e-11


------------------------------ INTEGRAL EVALUATION ----------------------------


 * One electron integrals 
 Pre-screening matrix                    ... done
 Shell pair data                         ... done (   0.001 sec)

-------------------------------------------------------------------------------
                                 ORCA SCF
-------------------------------------------------------------------------------

------------
SCF SETTINGS
------------
Hamiltonian:
 Density Functional     Method          .... DFT(GTOs)
 Exchange Functional    Exchange        .... WB97X-D3
 Correlation Functional Correlation     .... WB97X-D3
 Gradients option       PostSCFGGA      .... off
 Hybrid DFT is turned on
   Fraction HF Exchange ScalHFX         ....  0.195728
   Scaling of DF-GGA-X  ScalDFX         ....  0.000000
   Scaling of DF-GGA-C  ScalDFC         ....  1.000000
   Scaling of DF-LDA-C  ScalLDAC        ....  1.000000
   Perturbative correction              ....  0.000000
 Long-range corrected/Screened/Range-Separated Hybrid DFT is turned on
   Amount of maximum screened exact exchange              ....  0.804272
   Range separation parameter mu (erf(mu*r12)/r12)        ....  0.250000


General Settings:
 Integral files         IntName         .... Scan_20
 Hartree-Fock type      HFTyp           .... RHF
 Total Charge           Charge          ....    0
 Multiplicity           Mult            ....    1
 Number of Electrons    NEL             ....   42
 Basis Dimension        Dim             ....   96
 Nuclear Repulsion      ENuc            ....    137.2209047920 Eh

Convergence Acceleration:
 DIIS                   CNVDIIS         .... on
   Start iteration      DIISMaxIt       ....     0
   Startup error        DIISStart       ....  0.200000
   # of expansion vecs  DIISMaxEq       ....     5
   Bias factor          DIISBfac        ....   1.050
   Max. coefficient     DIISMaxC        ....  10.000
 Newton-Raphson         CNVNR           .... off
 SOSCF                  CNVSOSCF        .... off
 Level Shifting         CNVShift        .... off
 Zerner damping         CNVZerner       .... off
 Static damping         CNVDamp         .... off
 Fernandez-Rico         CNVRico         .... off

SCF Procedure:
 Maximum # iterations   MaxIter         ....   999
 SCF integral mode      SCFMode         .... Direct
   Integral package                     .... LIBINT
 Reset frequeny         DirectResetFreq ....    20
 Integral Threshold     Thresh          ....  1.000e-10 Eh
 Primitive CutOff       TCut            ....  1.000e-11 Eh

Convergence Tolerance:
 Convergence Check Mode ConvCheckMode   .... All-Criteria
 Convergence forced     ConvForced      .... 0
 Energy Change          TolE            ....  1.000e-06 Eh
 Max Density Change     TolMaxP         ....  1.000e-05
 RMS Density Change     TolRMSP         ....  1.000e-06
 DIIS Error             TolErr          ....  1.000e-06


Diagonalization of the overlap matrix:
Smallest eigenvalue                        ... 3.120e-02
Time for diagonalization                   ...    0.002 sec
Threshold for overlap eigenvalues          ... 1.000e-08
Number of eigenvalues below threshold      ... 0
Time for construction of square roots      ...    0.007 sec
Total time needed                          ...    0.009 sec

-------------------
DFT GRID GENERATION
-------------------

General Integration Accuracy     IntAcc      ...  4.340
Radial Grid Type                 RadialGrid  ... Gauss-Chebyshev
Angular Grid (max. acc.)         AngularGrid ... Lebedev-110
Angular grid pruning method      GridPruning ... 3 (G Style)
Weight generation scheme         WeightScheme... Becke
Basis function cutoff            BFCut       ...    1.0000e-10
Integration weight cutoff        WCut        ...    1.0000e-14
Grids for H and He will be reduced by one unit

# of grid points (after initial pruning)     ...  14700 (   0.0 sec)
# of grid points (after weights+screening)   ...  14021 (   0.0 sec)
nearest neighbour list constructed           ...    0.0 sec
Grid point re-assignment to atoms done       ...    0.0 sec
Grid point division into batches done        ...    0.0 sec
Reduced shell lists constructed in    0.2 sec

Total number of grid points                  ...    14021
Total number of batches                      ...      224
Average number of points per batch           ...       62
Average number of grid points per atom       ...     1168
Average number of shells per batch           ...    32.44 (67.57%)
Average number of basis functions per batch  ...    65.18 (67.90%)
Average number of large shells per batch     ...    24.44 (75.35%)
Average number of large basis fcns per batch ...    48.79 (74.85%)
Maximum spatial batch extension              ...  21.78, 25.60, 19.92 au
Average spatial batch extension              ...   4.66,  4.92,  4.18 au

Time for grid setup =    0.242 sec

------------------------------
INITIAL GUESS: MODEL POTENTIAL
------------------------------
Loading Hartree-Fock densities                     ... done
Calculating cut-offs                               ... done
Setting up the integral package                    ... done
Initializing the effective Hamiltonian             ... done
Starting the Coulomb interaction                   ... done (   0.1 sec)
Reading the grid                                   ... done
Mapping shells                                     ... done
Starting the XC term evaluation                    ... done (   0.2 sec)
  promolecular density results
     # of electrons  =     42.009734238
     EX              =    -31.626997130
     EC              =     -1.189348509
     EX+EC           =    -32.816345639
Transforming the Hamiltonian                       ... done (   0.0 sec)
Diagonalizing the Hamiltonian                      ... done (   0.0 sec)
Back transforming the eigenvectors                 ... done (   0.0 sec)
Now organizing SCF variables                       ... done
                      ------------------
                      INITIAL GUESS DONE (   0.6 sec)
                      ------------------
--------------
SCF ITERATIONS
--------------
ITER       Energy         Delta-E        Max-DP      RMS-DP      [F,P]   Gradient Norm
               ***  Starting incremental Fock matrix formation  ***
                             ****Resetting KDIIS****
                             ****Turning on KDIIS(Cayley)****
  0   -230.8401393273   0.000000000000 0.01557041  0.00061220  0.0425666   0.037920462
  1   -230.8571352181  -0.016995890797 0.00820174  0.00046598  0.0316554   0.029288906
  2   -230.8661827708  -0.009047552728 0.01626988  0.00089089  0.0259490   0.023810199
  3   -230.8781019543  -0.011919183465 0.02359486  0.00164579  0.0186738   0.014673449
  4   -230.8870745018  -0.008972547539 0.00663332  0.00043788  0.0030996   0.001861939
  5   -230.8875688368  -0.000494334923 0.00420929  0.00022292  0.0025379   0.001658241
  6   -230.8877718460  -0.000203009240 0.00389953  0.00024238  0.0017747   0.001024197
  7   -230.8879415331  -0.000169687083 0.00326985  0.00025290  0.0015736   0.000628277
  8   -230.8880643851  -0.000122852055 0.00359347  0.00020969  0.0009441   0.000439172
  9   -230.8881290100  -0.000064624819 0.00146611  0.00007630  0.0007472   0.000561402
 10   -230.8881530139  -0.000024003916 0.00191088  0.00010722  0.0007047   0.000291440
 11   -230.8881812523  -0.000028238459 0.00111689  0.00006638  0.0007226   0.000238964
 12   -230.8881983942  -0.000017141859 0.00096986  0.00006146  0.0007030   0.000228605
 13   -230.8882149676  -0.000016573447 0.00200404  0.00013439  0.0006616   0.000220324
 14   -230.8882453624  -0.000030394770 0.00321077  0.00020219  0.0006122   0.000188238
 15   -230.8882869896  -0.000041627189 0.00130812  0.00008328  0.0004592   0.000186301
 16   -230.8883015574  -0.000014567767 0.00361598  0.00023231  0.0004198   0.000176156
 17   -230.8883343021  -0.000032744748 0.00188972  0.00012369  0.0002777   0.000141667
 18   -230.8883476930  -0.000013390894 0.00122786  0.00008552  0.0003076   0.000142914
 19   -230.8883551210  -0.000007427967 0.00112317  0.00007865  0.0002930   0.000129961
               *** Restarting incremental Fock matrix formation ***
                             ****Resetting KDIIS****
 20   -230.8883608118  -0.000005690856 0.00003489  0.00000213  0.0002265   0.000098817
                          ***Energy convergence achieved***
 21   -230.8883610752  -0.000000263409 0.00008525  0.00000529  0.0002333   0.000094291
 22   -230.8883617024  -0.000000627138 0.00059121  0.00003649  0.0002322   0.000091972
 23   -230.8883656816  -0.000003979248 0.00143525  0.00008808  0.0002310   0.000082186
 24   -230.8883733798  -0.000007698132 0.00014481  0.00000968  0.0002320   0.000066874
                          ***Energy convergence achieved***
 25   -230.8883742039  -0.000000824139 0.00013188  0.00000763  0.0002196   0.000065883
 26   -230.8883742485  -0.000000044624 0.00059700  0.00003838  0.0002021   0.000071706
 27   -230.8883774590  -0.000003210514 0.00050774  0.00003502  0.0002259   0.000066280
 28   -230.8883804052  -0.000002946125 0.00053500  0.00003588  0.0002165   0.000066505
 29   -230.8883834300  -0.000003024890 0.00166858  0.00011095  0.0002175   0.000065105
 30   -230.8883926796  -0.000009249575 0.00191521  0.00012921  0.0002094   0.000065101
 31   -230.8884032127  -0.000010533090 0.00153019  0.00010256  0.0001944   0.000064485
 32   -230.8884113748  -0.000008162041 0.00211388  0.00014541  0.0001622   0.000070649
 33   -230.8884225976  -0.000011222886 0.00433951  0.00030138  0.0001903   0.000066288
 34   -230.8884442392  -0.000021641515 0.00013091  0.00000855  0.0001525   0.000083028
                          ***Energy convergence achieved***
 35   -230.8884438456   0.000000393569 0.00270184  0.00019337  0.0001598   0.000064395
 36   -230.8884566777  -0.000012832129 0.00068099  0.00005096  0.0001374   0.000068058
 37   -230.8884600808  -0.000003403132 0.00358628  0.00025590  0.0001388   0.000059478
 38   -230.8884751710  -0.000015090184 0.00087884  0.00006629  0.0000917   0.000078763
 39   -230.8884789847  -0.000003813685 0.00152898  0.00010881  0.0001197   0.000061912
               *** Restarting incremental Fock matrix formation ***
                             ****Resetting KDIIS****
 40   -230.8884848754  -0.000005890721 0.00002368  0.00000132  0.0001050   0.000059286
                          ***Energy convergence achieved***
 41   -230.8884849675  -0.000000092039 0.00004558  0.00000313  0.0001064   0.000055580
 42   -230.8884851773  -0.000000209875 0.00016244  0.00001106  0.0001056   0.000053948
 43   -230.8884859011  -0.000000723720 0.00079520  0.00005070  0.0001133   0.000051826
 44   -230.8884891286  -0.000003227576 0.00072546  0.00004309  0.0001071   0.000049008
 45   -230.8884918302  -0.000002701534 0.00013160  0.00000738  0.0001176   0.000049614
                          ***Energy convergence achieved***
 46   -230.8884913740   0.000000456200 0.00088289  0.00005204  0.0001144   0.000048138
 47   -230.8884946121  -0.000003238159 0.00161581  0.00009206  0.0001143   0.000047982
 48   -230.8885002901  -0.000005678003 0.00085455  0.00005042  0.0001172   0.000048001
 49   -230.8885033571  -0.000003066954 0.00061691  0.00003548  0.0001187   0.000047617
 50   -230.8885055144  -0.000002157355 0.00034162  0.00002295  0.0001074   0.000048041
 51   -230.8885068038  -0.000001289307 0.00110421  0.00006199  0.0001137   0.000052263
 52   -230.8885105354  -0.000003731627 0.00071468  0.00004254  0.0001200   0.000047996
 53   -230.8885131267  -0.000002591352 0.00011850  0.00000690  0.0001213   0.000047387
                          ***Energy convergence achieved***
 54   -230.8885135468  -0.000000420096 0.00142282  0.00008258  0.0001209   0.000047307
 55   -230.8885085287   0.000005018083 0.00020104  0.00001301  0.0001108   0.000047383
                          ***Energy convergence achieved***
 56   -230.8885092978  -0.000000769046 0.00222652  0.00013062  0.0001170   0.000047015
 57   -230.8885172430  -0.000007945163 0.00072600  0.00004191  0.0001274   0.000049388
 58   -230.8885147096   0.000002533393 0.00134734  0.00007695  0.0001122   0.000048518
 59   -230.8885193599  -0.000004650325 0.00265823  0.00015479  0.0001202   0.000047547
               *** Restarting incremental Fock matrix formation ***
                             ****Resetting KDIIS****
 60   -230.8885286520  -0.000009292151 0.00001846  0.00000114  0.0001232   0.000048076
                          ***Energy convergence achieved***
 61   -230.8885287231  -0.000000071086 0.00004410  0.00000297  0.0001205   0.000047134

            ***Energy convergence in two consecutive cycles with***
                    ***'reasonable' density convergence***
                       *** signaling convergence ***

                    *** KDIIS BlockDiag ( 0.001 sec) ***

               *****************************************************
               *                     SUCCESS                       *
               *           SCF CONVERGED AFTER  62 CYCLES          *
               *****************************************************

Setting up the final grid:

General Integration Accuracy     IntAcc      ...  4.670
Radial Grid Type                 RadialGrid  ... Gauss-Chebyshev
Angular Grid (max. acc.)         AngularGrid ... Lebedev-302
Angular grid pruning method      GridPruning ... 3 (G Style)
Weight generation scheme         WeightScheme... Becke
Basis function cutoff            BFCut       ...    1.0000e-10
Integration weight cutoff        WCut        ...    1.0000e-14
Grids for H and He will be reduced by one unit

# of grid points (after initial pruning)     ...  57636 (   0.0 sec)
# of grid points (after weights+screening)   ...  54373 (   0.1 sec)
nearest neighbour list constructed           ...    0.0 sec
Grid point re-assignment to atoms done       ...    0.0 sec
Grid point division into batches done        ...    0.2 sec
Reduced shell lists constructed in    0.8 sec

Total number of grid points                  ...    54373
Total number of batches                      ...      857
Average number of points per batch           ...       63
Average number of grid points per atom       ...     4531
Average number of shells per batch           ...    28.98 (60.37%)
Average number of basis functions per batch  ...    57.75 (60.16%)
Average number of large shells per batch     ...    21.34 (73.62%)
Average number of large basis fcns per batch ...    42.03 (72.78%)
Maximum spatial batch extension              ...  17.86, 20.47, 18.52 au
Average spatial batch extension              ...   2.96,  2.98,  2.71 au

Final grid set up in    0.9 sec
Final integration                            ... done (   0.7 sec)
Change in XC energy                          ...    -0.002451144
Integrated number of electrons               ...    41.999949727
Previous integrated no of electrons          ...    42.006961275

----------------
TOTAL SCF ENERGY
----------------

Total Energy       :         -230.89098005 Eh           -6282.86298 eV

Components:
Nuclear Repulsion  :          137.22090479 Eh            3733.97065 eV
Electronic Energy  :         -368.11188484 Eh          -10016.83363 eV
One Electron Energy:         -580.21690344 Eh          -15788.50461 eV
Two Electron Energy:          212.10501860 Eh            5771.67098 eV

Virial components:
Potential Energy   :         -458.98573552 Eh          -12489.63682 eV
Kinetic Energy     :          228.09475547 Eh            6206.77384 eV
Virial Ratio       :            2.01225905


DFT components:
N(Alpha)           :       20.999974863642 electrons
N(Beta)            :       20.999974863642 electrons
N(Total)           :       41.999949727284 electrons
E(XC)              :      -22.718904137766 Eh       

---------------
SCF CONVERGENCE
---------------

  Last Energy change         ...   -1.8038e-07  Tolerance :   1.0000e-06
  Last MAX-Density change    ...    9.1687e-05  Tolerance :   1.0000e-05
  Last RMS-Density change    ...    5.9703e-06  Tolerance :   1.0000e-06
  Last DIIS Error            ...    1.2143e-04  Tolerance :   1.0000e-06

             **** THE GBW FILE WAS UPDATED (Scan_20.gbw) ****
             **** DENSITY FILE WAS UPDATED (Scan_20.scfp.tmp) ****
             **** ENERGY FILE WAS UPDATED (Scan_20.en.tmp) ****
----------------
ORBITAL ENERGIES
----------------

  NO   OCC          E(Eh)            E(eV) 
   0   2.0000     -10.450565      -284.3743 
   1   2.0000     -10.444257      -284.2027 
   2   2.0000     -10.408961      -283.2422 
   3   2.0000     -10.400442      -283.0104 
   4   2.0000     -10.392256      -282.7877 
   5   2.0000     -10.390054      -282.7277 
   6   2.0000      -0.791560       -21.5394 
   7   2.0000      -0.778029       -21.1713 
   8   2.0000      -0.750857       -20.4319 
   9   2.0000      -0.733990       -19.9729 
  10   2.0000      -0.712278       -19.3821 
  11   2.0000      -0.707624       -19.2554 
  12   2.0000      -0.454224       -12.3601 
  13   2.0000      -0.449911       -12.2427 
  14   2.0000      -0.430373       -11.7110 
  15   2.0000      -0.421007       -11.4562 
  16   2.0000      -0.415481       -11.3058 
  17   2.0000      -0.358796        -9.7633 
  18   2.0000      -0.308037        -8.3821 
  19   2.0000      -0.299157        -8.1405 
  20   2.0000      -0.259066        -7.0495 
  21   0.0000      -0.105204        -2.8627 
  22   0.0000      -0.103090        -2.8052 
  23   0.0000      -0.092357        -2.5132 
  24   0.0000       0.017118         0.4658 
  25   0.0000       0.019817         0.5392 
  26   0.0000       0.037891         1.0311 
  27   0.0000       0.039652         1.0790 
  28   0.0000       0.060121         1.6360 
  29   0.0000       0.075635         2.0581 
  30   0.0000       0.186586         5.0773 
  31   0.0000       0.211833         5.7643 
  32   0.0000       0.237301         6.4573 
  33   0.0000       0.246414         6.7053 
  34   0.0000       0.247992         6.7482 
  35   0.0000       0.260998         7.1021 
  36   0.0000       0.526124        14.3166 
  37   0.0000       0.578508        15.7420 
  38   0.0000       0.592714        16.1286 
  39   0.0000       0.611238        16.6326 
  40   0.0000       0.625094        17.0097 
  41   0.0000       0.637611        17.3503 
  42   0.0000       0.642359        17.4795 
  43   0.0000       0.646412        17.5898 
  44   0.0000       0.669216        18.2103 
  45   0.0000       0.705276        19.1915 
  46   0.0000       0.732160        19.9231 
  47   0.0000       0.739249        20.1160 
  48   0.0000       0.758519        20.6404 
  49   0.0000       0.761813        20.7300 
  50   0.0000       0.810175        22.0460 
  51   0.0000       0.812300        22.1038 
  52   0.0000       0.814509        22.1639 
  53   0.0000       0.830004        22.5856 
  54   0.0000       0.869103        23.6495 
  55   0.0000       0.869927        23.6719 
  56   0.0000       0.878348        23.9011 
  57   0.0000       0.949344        25.8330 
  58   0.0000       0.961377        26.1604 
  59   0.0000       1.000656        27.2292 
  60   0.0000       1.002609        27.2824 
  61   0.0000       1.017734        27.6940 
  62   0.0000       1.019169        27.7330 
  63   0.0000       1.109114        30.1805 
  64   0.0000       1.115813        30.3628 
  65   0.0000       1.262846        34.3638 
  66   0.0000       1.666423        45.3457 
  67   0.0000       1.709044        46.5055 
  68   0.0000       1.723610        46.9018 
  69   0.0000       1.729220        47.0545 
  70   0.0000       1.729651        47.0662 
  71   0.0000       1.734668        47.2027 
  72   0.0000       1.738761        47.3141 
  73   0.0000       1.749395        47.6035 
  74   0.0000       1.757428        47.8220 
  75   0.0000       1.770726        48.1839 
  76   0.0000       1.775512        48.3141 
  77   0.0000       1.779265        48.4163 
  78   0.0000       1.794903        48.8418 
  79   0.0000       1.804287        49.0972 
  80   0.0000       1.814830        49.3840 
  81   0.0000       1.821498        49.5655 
  82   0.0000       1.827742        49.7354 
  83   0.0000       1.828731        49.7623 
  84   0.0000       1.905665        51.8558 
  85   0.0000       1.999145        54.3995 
  86   0.0000       2.006164        54.5905 
  87   0.0000       2.020574        54.9826 
  88   0.0000       2.037851        55.4527 
  89   0.0000       2.041179        55.5433 
  90   0.0000       2.201549        59.9072 
  91   0.0000       2.210824        60.1596 
  92   0.0000       2.234577        60.8059 
  93   0.0000       2.242810        61.0300 
  94   0.0000       2.249726        61.2182 
  95   0.0000       2.254687        61.3532 

                    ********************************
                    * MULLIKEN POPULATION ANALYSIS *
                    ********************************

-----------------------
MULLIKEN ATOMIC CHARGES
-----------------------
   0 C :   -0.103591
   1 H :    0.207673
   2 C :   -0.220440
   3 H :    0.183500
   4 C :   -0.252322
   5 H :    0.179268
   6 C :   -0.101884
   7 H :    0.211153
   8 C :   -0.221819
   9 H :    0.190849
  10 C :   -0.250146
  11 H :    0.177759
Sum of atomic charges:   -0.0000000

--------------------------------
MULLIKEN REDUCED ORBITAL CHARGES
--------------------------------
  0 C s       :     3.811931  s :     3.811931
      pz      :     1.170083  p :     2.276573
      px      :     0.324479
      py      :     0.782011
      dz2     :     0.012391  d :     0.015088
      dxz     :     0.001210
      dyz     :    -0.000110
      dx2y2   :     0.000475
      dxy     :     0.001121
  1 H s       :     0.792327  s :     0.792327
  2 C s       :     3.773206  s :     3.773206
      pz      :     1.104792  p :     2.432715
      px      :     0.710174
      py      :     0.617749
      dz2     :     0.011214  d :     0.014519
      dxz     :     0.000492
      dyz     :     0.001230
      dx2y2   :     0.000873
      dxy     :     0.000711
  3 H s       :     0.816500  s :     0.816500
  4 C s       :     3.757597  s :     3.757597
      pz      :     1.087639  p :     2.480449
      px      :     0.638230
      py      :     0.754580
      dz2     :     0.010958  d :     0.014276
      dxz     :     0.000282
      dyz     :     0.001494
      dx2y2   :     0.000661
      dxy     :     0.000880
  5 H s       :     0.820732  s :     0.820732
  6 C s       :     3.815076  s :     3.815076
      pz      :     1.172820  p :     2.271649
      px      :     0.392019
      py      :     0.706810
      dz2     :     0.012305  d :     0.015159
      dxz     :     0.001313
      dyz     :    -0.000079
      dx2y2   :     0.000576
      dxy     :     0.001043
  7 H s       :     0.788847  s :     0.788847
  8 C s       :     3.764635  s :     3.764635
      pz      :     1.122435  p :     2.442959
      px      :     0.745468
      py      :     0.575056
      dz2     :     0.011404  d :     0.014225
      dxz     :     0.000343
      dyz     :     0.001032
      dx2y2   :     0.000739
      dxy     :     0.000707
  9 H s       :     0.809151  s :     0.809151
 10 C s       :     3.758281  s :     3.758281
      pz      :     1.074678  p :     2.477434
      px      :     0.547927
      py      :     0.854829
      dz2     :     0.011006  d :     0.014430
      dxz     :     0.000353
      dyz     :     0.001485
      dx2y2   :     0.000698
      dxy     :     0.000889
 11 H s       :     0.822241  s :     0.822241


                     *******************************
                     * LOEWDIN POPULATION ANALYSIS *
                     *******************************

----------------------
LOEWDIN ATOMIC CHARGES
----------------------
   0 C :   -0.020636
   1 H :    0.143663
   2 C :   -0.174384
   3 H :    0.130167
   4 C :   -0.213294
   5 H :    0.128314
   6 C :   -0.020676
   7 H :    0.146002
   8 C :   -0.161493
   9 H :    0.134352
  10 C :   -0.219446
  11 H :    0.127432

-------------------------------
LOEWDIN REDUCED ORBITAL CHARGES
-------------------------------
  0 C s       :     3.602858  s :     3.602858
      pz      :     1.248050  p :     2.396751
      px      :     0.342383
      py      :     0.806318
      dz2     :     0.016884  d :     0.021028
      dxz     :     0.001793
      dyz     :     0.000193
      dx2y2   :     0.000669
      dxy     :     0.001489
  1 H s       :     0.856337  s :     0.856337
  2 C s       :     3.572434  s :     3.572434
      pz      :     1.191600  p :     2.581115
      px      :     0.743957
      py      :     0.645558
      dz2     :     0.015868  d :     0.020835
      dxz     :     0.000961
      dyz     :     0.001794
      dx2y2   :     0.001276
      dxy     :     0.000937
  3 H s       :     0.869833  s :     0.869833
  4 C s       :     3.559760  s :     3.559760
      pz      :     1.176028  p :     2.632884
      px      :     0.677548
      py      :     0.779307
      dz2     :     0.015621  d :     0.020650
      dxz     :     0.000701
      dyz     :     0.002162
      dx2y2   :     0.000985
      dxy     :     0.001181
  5 H s       :     0.871686  s :     0.871686
  6 C s       :     3.606164  s :     3.606164
      pz      :     1.249386  p :     2.393396
      px      :     0.409341
      py      :     0.734668
      dz2     :     0.016726  d :     0.021117
      dxz     :     0.001930
      dyz     :     0.000226
      dx2y2   :     0.000788
      dxy     :     0.001447
  7 H s       :     0.853998  s :     0.853998
  8 C s       :     3.562035  s :     3.562035
      pz      :     1.205779  p :     2.578999
      px      :     0.773131
      py      :     0.600089
      dz2     :     0.016026  d :     0.020459
      dxz     :     0.000782
      dyz     :     0.001601
      dx2y2   :     0.001102
      dxy     :     0.000947
  9 H s       :     0.865648  s :     0.865648
 10 C s       :     3.561150  s :     3.561150
      pz      :     1.165354  p :     2.637417
      px      :     0.592713
      py      :     0.879349
      dz2     :     0.015759  d :     0.020880
      dxz     :     0.000806
      dyz     :     0.002091
      dx2y2   :     0.001033
      dxy     :     0.001190
 11 H s       :     0.872568  s :     0.872568


                      *****************************
                      * MAYER POPULATION ANALYSIS *
                      *****************************

  NA   - Mulliken gross atomic population
  ZA   - Total nuclear charge
  QA   - Mulliken gross atomic charge
  VA   - Mayer's total valence
  BVA  - Mayer's bonded valence
  FA   - Mayer's free valence

  ATOM       NA         ZA         QA         VA         BVA        FA
  0 C      6.1036     6.0000    -0.1036     2.6248     2.6248    -0.0000
  1 H      0.7923     1.0000     0.2077     0.9035     0.9035    -0.0000
  2 C      6.2204     6.0000    -0.2204     2.9273     2.9273    -0.0000
  3 H      0.8165     1.0000     0.1835     0.9131     0.9131     0.0000
  4 C      6.2523     6.0000    -0.2523     2.9377     2.9377    -0.0000
  5 H      0.8207     1.0000     0.1793     0.9156     0.9156     0.0000
  6 C      6.1019     6.0000    -0.1019     2.6840     2.6840    -0.0000
  7 H      0.7888     1.0000     0.2112     0.9022     0.9022     0.0000
  8 C      6.2218     6.0000    -0.2218     2.9915     2.9915    -0.0000
  9 H      0.8092     1.0000     0.1908     0.9117     0.9117    -0.0000
 10 C      6.2501     6.0000    -0.2501     2.9484     2.9484    -0.0000
 11 H      0.8222     1.0000     0.1778     0.9154     0.9154    -0.0000

  Mayer bond orders larger than 0.1
B(  0-C ,  1-H ) :   0.8836 B(  0-C ,  2-C ) :   0.5289 B(  0-C ,  4-C ) :   0.1524 
B(  0-C ,  6-C ) :   0.1307 B(  0-C ,  8-C ) :   0.2621 B(  0-C , 10-C ) :   0.6353 
B(  2-C ,  3-H ) :   0.8827 B(  2-C ,  4-C ) :   1.1095 B(  2-C ,  6-C ) :   0.2413 
B(  4-C ,  5-H ) :   0.8813 B(  4-C ,  6-C ) :   0.6139 B(  6-C ,  7-H ) :   0.8824 
B(  6-C ,  8-C ) :   0.5966 B(  6-C , 10-C ) :   0.1846 B(  8-C ,  9-H ) :   0.8796 
B(  8-C , 10-C ) :   1.0769 B( 10-C , 11-H ) :   0.8817 

-------
TIMINGS
-------

Total SCF time: 0 days 0 hours 2 min 14 sec 

Total time                  ....     134.364 sec
Sum of individual times     ....     133.619 sec  ( 99.4%)

Fock matrix formation       ....     132.085 sec  ( 98.3%)
  XC integration            ....      13.344 sec  ( 10.1% of F)
    Basis function eval.    ....       6.674 sec  ( 50.0% of XC)
    Density eval.           ....       0.934 sec  (  7.0% of XC)
    XC-Functional eval.     ....       2.822 sec  ( 21.1% of XC)
    XC-Potential eval.      ....       1.133 sec  (  8.5% of XC)
Diagonalization             ....       0.059 sec  (  0.0%)
Density matrix formation    ....       0.007 sec  (  0.0%)
Population analysis         ....       0.017 sec  (  0.0%)
Initial guess               ....       0.336 sec  (  0.2%)
Orbital Transformation      ....       0.000 sec  (  0.0%)
Orbital Orthonormalization  ....       0.000 sec  (  0.0%)
DIIS solution               ....       0.000 sec  (  0.0%)
Grid generation             ....       1.114 sec  (  0.8%)


-------------------------------------------------------------------------------
                          DFT DISPERSION CORRECTION                            
                                                                               
                              DFTD3 V3.1  Rev 1                                
                              USING zero damping                               
-------------------------------------------------------------------------------
The omegaB97X-D3 functional is recognized. Fit by Chai et al.
Active option DFTDOPT                   ...         3   

molecular C6(AA) [au] = 2463.446296 


            DFT-D V3
 parameters
 s6 scaling factor         :     1.0000 
 rs6 scaling factor        :     1.2810 
 s8 scaling factor         :     1.0000 
 rs8 scaling factor        :     1.0940 
 Damping factor alpha6     :    14.0000 
 Damping factor alpha8     :    16.0000 
 ad hoc parameters k1-k3   :    16.0000     1.3333    -4.0000 

 Edisp/kcal,au: -2.929406939846  -0.004668306613 
 E6   /kcal   :  -1.283258087 
 E8   /kcal   :  -1.646148853 
 % E8         :  56.193928901 

-------------------------   ----------------
Dispersion correction           -0.004668307
-------------------------   ----------------


-------------------------   --------------------
FINAL SINGLE POINT ENERGY      -230.895648353952
-------------------------   --------------------


                            ***************************************
                            *     ORCA property calculations      *
                            ***************************************

                                    ---------------------
                                    Active property flags
                                    ---------------------
   (+) Dipole Moment


------------------------------------------------------------------------------
                       ORCA ELECTRIC PROPERTIES CALCULATION
------------------------------------------------------------------------------

Dipole Moment Calculation                       ... on
Quadrupole Moment Calculation                   ... off
Polarizability Calculation                      ... off
GBWName                                         ... Scan_20.gbw
Electron density file                           ... Scan_20.scfp.tmp

-------------
DIPOLE MOMENT
-------------
                                X             Y             Z
Electronic contribution:     -0.05819      -0.03481      -0.01622
Nuclear contribution   :     -0.00537      -0.01942       0.00135
                        -----------------------------------------
Total Dipole Moment    :     -0.06356      -0.05423      -0.01487
                        -----------------------------------------
Magnitude (a.u.)       :      0.08486
Magnitude (Debye)      :      0.21570


Timings for individual modules:

Sum of individual times         ...      134.711 sec (=   2.245 min)
GTO integral calculation        ...        0.323 sec (=   0.005 min)   0.2 %
SCF iterations                  ...      134.387 sec (=   2.240 min)  99.8 %
                             ****ORCA TERMINATED NORMALLY****
TOTAL RUN TIME: 0 days 0 hours 2 minutes 15 seconds 60 msec
