
                                 *****************
                                 * O   R   C   A *
                                 *****************

           --- An Ab Initio, DFT and Semiempirical electronic structure package ---

                  #######################################################
                  #                        -***-                        #
                  #  Department of molecular theory and spectroscopy    #
                  #              Directorship: Frank Neese              #
                  # Max Planck Institute for Chemical Energy Conversion #
                  #                  D-45470 Muelheim/Ruhr              #
                  #                       Germany                       #
                  #                                                     #
                  #                  All rights reserved                #
                  #                        -***-                        #
                  #######################################################


                         Program Version 4.0.0.2 - RELEASE -


 With contributions from (in alphabetic order):
   Daniel Aravena         : Magnetic Properties
   Michael Atanasov       : Ab Initio Ligand Field Theory
   Ute Becker             : Parallelization
   Martin Brehm           : Molecular dynamics
   Dmytro Bykov           : SCF Hessian
   Vijay G. Chilkuri      : MRCI spin determinant printing
   Dipayan Datta          : RHF DLPNO-CCSD density
   Achintya Kumar Dutta   : EOM-CC, STEOM-CC
   Dmitry Ganyushin       : Spin-Orbit,Spin-Spin,Magnetic field MRCI
   Yang Guo               : DLPNO-NEVPT2, CIM, IAO-localization
   Andreas Hansen         : Spin unrestricted coupled pair/coupled cluster methods
   Lee Huntington         : MR-EOM, pCC
   Robert Izsak           : Overlap fitted RIJCOSX, COSX-SCS-MP3, EOM
   Christian Kollmar      : KDIIS, OOCD, Brueckner-CCSD(T), CCSD density
   Simone Kossmann        : Meta GGA functionals, TD-DFT gradient, OOMP2, MP2 Hessian
   Martin Krupicka        : AUTO-CI
   Dagmar Lenk            : GEPOL surface
   Dimitrios Liakos       : Extrapolation schemes; parallel MDCI
   Dimitrios Manganas     : ROCIS; embedding schemes
   Dimitrios Pantazis     : SARC Basis sets
   Taras Petrenko         : DFT Hessian,TD-DFT gradient, ASA, ECA, R-Raman, ABS, FL, XAS/XES, NRVS
   Peter Pinski           : DLPNO-MP2
   Christoph Reimann      : Effective Core Potentials
   Marius Retegan         : Local ZFS, SOC
   Christoph Riplinger    : Optimizer, TS searches, QM/MM, DLPNO-CCSD(T), (RO)-DLPNO pert. Triples
   Tobias Risthaus        : Range-separated hybrids, TD-DFT gradient, RPA, STAB
   Michael Roemelt        : Restricted open shell CIS
   Masaaki Saitow         : Open-shell DLPNO
   Barbara Sandhoefer     : DKH picture change effects
   Kantharuban Sivalingam : CASSCF convergence, NEVPT2, FIC-MRCI
   Georgi Stoychev        : AutoAux
   Boris Wezisla          : Elementary symmetry handling
   Frank Wennmohs         : Technical directorship


 We gratefully acknowledge several colleagues who have allowed us to
 interface, adapt or use parts of their codes:
   Stefan Grimme, W. Hujo, H. Kruse,             : VdW corrections, initial TS optimization,
                  C. Bannwarth                     DFT functionals, gCP, sTDA/sTD-DF
   Ed Valeev                                     : LibInt (2-el integral package), F12 methods
   Garnet Chan, S. Sharma, J. Yang, R. Olivares  : DMRG
   Ulf Ekstrom                                   : XCFun DFT Library
   Mihaly Kallay                                 : mrcc  (arbitrary order and MRCC methods)
   Jiri Pittner, Ondrej Demel                    : Mk-CCSD
   Frank Weinhold                                : gennbo (NPA and NBO analysis)
   Christopher J. Cramer and Donald G. Truhlar   : smd solvation model


 Your calculation uses the libint2 library for the computation of 2-el integrals
 For citations please refer to: http://libint.valeyev.net

 This ORCA versions uses:
   CBLAS   interface :  Fast vector & matrix operations
   LAPACKE interface :  Fast linear algebra routines
   SCALAPACK package :  Parallel linear algebra routines


Your calculation utilizes the atom-pairwise dispersion correction
with the zero-damping scheme (D30)
Cite in your paper:
S.Grimme, J.Antony, S.Ehrlich and H.Krieg, J.Chem.Phys., 132, (2010), 154104 
   

XCFun DFT library Copyright 2009-2010 Ulf Ekstrom and contributors.
See http://admol.org/xcfun for more information. This is free soft-
ware; see the source code for copying conditions. There is ABSOLUTELY
NO WARRANTY; not even for MERCHANTABILITY or FITNESS FOR A PARTICULAR
PURPOSE. For details see the documentation. Scientific users of this 
library should cite U. Ekstrom, L. Visscher, R. Bast, A. J. Thorvald-
sen and K. Ruud; J.Chem.Theor.Comp. 2010, DOI: 10.1021/ct100117s
XCFun Version 0.99 
Your calculation utilizes the basis: 6-31G(d)
   H-He, Li-Ne : W. J. Hehre, R. Ditchfield and J.A. Pople, J. Chem. Phys. 56, 2257 (1972).
                 Note: He and Ne are unpublished basis sets taken from the Gaussian program.
                 Note: Li and B from J. D. Dill and J. A. Pople, J. Chem. Phys. 62, 2921 (1975).
   Na - Ar     : M. M. Francl, W. J. Pietro, W. J. Hehre, J. S. Binkley, M. S. Gordon, 
                 D. J. DeFrees and J. A. Pople, J. Chem. Phys. 77, 3654 (1982).
   K - Zn      : V. A. Rassolov, J. A. Pople, M. A. Ratner, and T. L. Windus, J. Chem. Phys. 109, 1223 (1998).

================================================================================
                                        WARNINGS
                       Please study these warnings very carefully!
================================================================================

Warning: TCutStore was < 0. Adjusted to Thresh (uncritical)

INFO   : the flag for use of LIBINT has been found!

================================================================================
                                       INPUT FILE
================================================================================
NAME = initial21.inp
|  1> ! WB97X-D3 6-31G(d) VerySlowConv
|  2> ! KDIIS NOSOSCF
|  3> %base "Scan_21"
|  4> 
|  5> %scf
|  6> maxiter 999
|  7> end
|  8> 
|  9> * xyz 0 1
| 10> C          2.489376601692   -2.923861334042   -0.399119877857
| 11> H          2.325929093212   -2.910889060965   -1.490130166702
| 12> C          1.464288512573   -0.788363325120    0.401973186002
| 13> H          1.368884039133   -0.924974446049    1.492568583406
| 14> C         -0.895140391720   -0.610118117510   -0.406903077782
| 15> H         -0.821903065413   -0.765109758821   -1.496773810654
| 16> C         -2.228761986136   -2.562255306165    0.407741264812
| 17> H         -2.055161401406   -2.574977187189    1.497262171693
| 18> C         -1.207406152344   -4.694748051002   -0.406144811798
| 19> H         -1.112134060499   -4.552823899538   -1.496157027506
| 20> C          1.151717669636   -4.878630459408    0.402481956455
| 21> H          1.078921141271   -4.729359054191    1.493201609930
| 22> **                         ****END OF INPUT****
================================================================================

                       ****************************
                       * Single Point Calculation *
                       ****************************

---------------------------------
CARTESIAN COORDINATES (ANGSTROEM)
---------------------------------
  C      2.489377   -2.923861   -0.399120
  H      2.325929   -2.910889   -1.490130
  C      1.464289   -0.788363    0.401973
  H      1.368884   -0.924974    1.492569
  C     -0.895140   -0.610118   -0.406903
  H     -0.821903   -0.765110   -1.496774
  C     -2.228762   -2.562255    0.407741
  H     -2.055161   -2.574977    1.497262
  C     -1.207406   -4.694748   -0.406145
  H     -1.112134   -4.552824   -1.496157
  C      1.151718   -4.878630    0.402482
  H      1.078921   -4.729359    1.493202

----------------------------
CARTESIAN COORDINATES (A.U.)
----------------------------
  NO LB      ZA    FRAG     MASS         X           Y           Z
   0 C     6.0000    0    12.011    4.704240   -5.525297   -0.754227
   1 H     1.0000    0     1.008    4.395369   -5.500783   -2.815938
   2 C     6.0000    0    12.011    2.767104   -1.489791    0.759619
   3 H     1.0000    0     1.008    2.586816   -1.747948    2.820546
   4 C     6.0000    0    12.011   -1.691570   -1.152956   -0.768935
   5 H     1.0000    0     1.008   -1.553172   -1.445848   -2.828493
   6 C     6.0000    0    12.011   -4.211750   -4.841961    0.770519
   7 H     1.0000    0     1.008   -3.883692   -4.866002    2.829415
   8 C     6.0000    0    12.011   -2.281667   -8.871788   -0.767502
   9 H     1.0000    0     1.008   -2.101629   -8.603590   -2.827327
  10 C     6.0000    0    12.011    2.176431   -9.219275    0.760581
  11 H     1.0000    0     1.008    2.038865   -8.937193    2.821742

--------------------------------
INTERNAL COORDINATES (ANGSTROEM)
--------------------------------
 C      0   0   0     0.000000000000     0.00000000     0.00000000
 H      1   0   0     1.103261899216     0.00000000     0.00000000
 C      1   2   0     2.500581419096   104.24279283     0.00000000
 H      3   1   2     1.103251074213   104.26400386   164.58255423
 C      3   1   2     2.500591313782   110.12340782    53.20119057
 H      5   3   1     1.103269835177   104.29396150   307.08034402
 C      5   3   1     2.500606239563   110.01004169    58.46698629
 H      7   5   3     1.103338033336   104.28747802    52.59263228
 C      7   5   3     2.500620641301   109.99135549   301.23409836
 H      9   7   5     1.103333977835   104.30696729   307.37813390
 C      1   2   3     2.500603777644   104.29679796   115.63540866
 H     11   1   2     1.103290827223   104.26709975   195.40433592

---------------------------
INTERNAL COORDINATES (A.U.)
---------------------------
 C      0   0   0     0.000000000000     0.00000000     0.00000000
 H      1   0   0     2.084862843509     0.00000000     0.00000000
 C      1   2   0     4.725414057663   104.24279283     0.00000000
 H      3   1   2     2.084842387217   104.26400386   164.58255423
 C      3   1   2     4.725432755910   110.12340782    53.20119057
 H      5   3   1     2.084877840301   104.29396150   307.08034402
 C      5   3   1     4.725460961549   110.01004169    58.46698629
 H      7   5   3     2.085006716145   104.28747802    52.59263228
 C      7   5   3     4.725488176890   109.99135549   301.23409836
 H      9   7   5     2.084999052359   104.30696729   307.37813390
 C      1   2   3     4.725456309195   104.29679796   115.63540866
 H     11   1   2     2.084917509519   104.26709975   195.40433592

---------------------
BASIS SET INFORMATION
---------------------
There are 2 groups of distinct atoms

 Group   1 Type C   : 10s4p1d contracted to 3s2p1d pattern {631/31/1}
 Group   2 Type H   : 4s contracted to 2s pattern {31}

Atom   0C    basis set group =>   1
Atom   1H    basis set group =>   2
Atom   2C    basis set group =>   1
Atom   3H    basis set group =>   2
Atom   4C    basis set group =>   1
Atom   5H    basis set group =>   2
Atom   6C    basis set group =>   1
Atom   7H    basis set group =>   2
Atom   8C    basis set group =>   1
Atom   9H    basis set group =>   2
Atom  10C    basis set group =>   1
Atom  11H    basis set group =>   2
------------------------------------------------------------------------------
                           ORCA GTO INTEGRAL CALCULATION
------------------------------------------------------------------------------

                         BASIS SET STATISTICS AND STARTUP INFO

 # of primitive gaussian shells          ...  114
 # of primitive gaussian functions       ...  186
 # of contracted shells                  ...   48
 # of contracted basis functions         ...   96
 Highest angular momentum                ...    2
 Maximum contraction depth               ...    6
 Integral package used                   ... LIBINT
 Integral threshhold            Thresh   ...  1.000e-10
 Primitive cut-off              TCut     ...  1.000e-11


------------------------------ INTEGRAL EVALUATION ----------------------------


 * One electron integrals 
 Pre-screening matrix                    ... done
 Shell pair data                         ... done (   0.001 sec)

-------------------------------------------------------------------------------
                                 ORCA SCF
-------------------------------------------------------------------------------

------------
SCF SETTINGS
------------
Hamiltonian:
 Density Functional     Method          .... DFT(GTOs)
 Exchange Functional    Exchange        .... WB97X-D3
 Correlation Functional Correlation     .... WB97X-D3
 Gradients option       PostSCFGGA      .... off
 Hybrid DFT is turned on
   Fraction HF Exchange ScalHFX         ....  0.195728
   Scaling of DF-GGA-X  ScalDFX         ....  0.000000
   Scaling of DF-GGA-C  ScalDFC         ....  1.000000
   Scaling of DF-LDA-C  ScalLDAC        ....  1.000000
   Perturbative correction              ....  0.000000
 Long-range corrected/Screened/Range-Separated Hybrid DFT is turned on
   Amount of maximum screened exact exchange              ....  0.804272
   Range separation parameter mu (erf(mu*r12)/r12)        ....  0.250000


General Settings:
 Integral files         IntName         .... Scan_21
 Hartree-Fock type      HFTyp           .... RHF
 Total Charge           Charge          ....    0
 Multiplicity           Mult            ....    1
 Number of Electrons    NEL             ....   42
 Basis Dimension        Dim             ....   96
 Nuclear Repulsion      ENuc            ....    130.7199904762 Eh

Convergence Acceleration:
 DIIS                   CNVDIIS         .... on
   Start iteration      DIISMaxIt       ....     0
   Startup error        DIISStart       ....  0.200000
   # of expansion vecs  DIISMaxEq       ....     5
   Bias factor          DIISBfac        ....   1.050
   Max. coefficient     DIISMaxC        ....  10.000
 Newton-Raphson         CNVNR           .... off
 SOSCF                  CNVSOSCF        .... off
 Level Shifting         CNVShift        .... off
 Zerner damping         CNVZerner       .... off
 Static damping         CNVDamp         .... off
 Fernandez-Rico         CNVRico         .... off

SCF Procedure:
 Maximum # iterations   MaxIter         ....   999
 SCF integral mode      SCFMode         .... Direct
   Integral package                     .... LIBINT
 Reset frequeny         DirectResetFreq ....    20
 Integral Threshold     Thresh          ....  1.000e-10 Eh
 Primitive CutOff       TCut            ....  1.000e-11 Eh

Convergence Tolerance:
 Convergence Check Mode ConvCheckMode   .... All-Criteria
 Convergence forced     ConvForced      .... 0
 Energy Change          TolE            ....  1.000e-06 Eh
 Max Density Change     TolMaxP         ....  1.000e-05
 RMS Density Change     TolRMSP         ....  1.000e-06
 DIIS Error             TolErr          ....  1.000e-06


Diagonalization of the overlap matrix:
Smallest eigenvalue                        ... 3.378e-02
Time for diagonalization                   ...    0.002 sec
Threshold for overlap eigenvalues          ... 1.000e-08
Number of eigenvalues below threshold      ... 0
Time for construction of square roots      ...    0.007 sec
Total time needed                          ...    0.009 sec

-------------------
DFT GRID GENERATION
-------------------

General Integration Accuracy     IntAcc      ...  4.340
Radial Grid Type                 RadialGrid  ... Gauss-Chebyshev
Angular Grid (max. acc.)         AngularGrid ... Lebedev-110
Angular grid pruning method      GridPruning ... 3 (G Style)
Weight generation scheme         WeightScheme... Becke
Basis function cutoff            BFCut       ...    1.0000e-10
Integration weight cutoff        WCut        ...    1.0000e-14
Grids for H and He will be reduced by one unit

# of grid points (after initial pruning)     ...  14700 (   0.0 sec)
# of grid points (after weights+screening)   ...  14068 (   0.0 sec)
nearest neighbour list constructed           ...    0.0 sec
Grid point re-assignment to atoms done       ...    0.0 sec
Grid point division into batches done        ...    0.0 sec
Reduced shell lists constructed in    0.2 sec

Total number of grid points                  ...    14068
Total number of batches                      ...      225
Average number of points per batch           ...       62
Average number of grid points per atom       ...     1172
Average number of shells per batch           ...    31.15 (64.89%)
Average number of basis functions per batch  ...    62.24 (64.84%)
Average number of large shells per batch     ...    23.23 (74.60%)
Average number of large basis fcns per batch ...    45.91 (73.75%)
Maximum spatial batch extension              ...  20.66, 25.60, 19.01 au
Average spatial batch extension              ...   4.77,  4.90,  4.20 au

Time for grid setup =    0.251 sec

------------------------------
INITIAL GUESS: MODEL POTENTIAL
------------------------------
Loading Hartree-Fock densities                     ... done
Calculating cut-offs                               ... done
Setting up the integral package                    ... done
Initializing the effective Hamiltonian             ... done
Starting the Coulomb interaction                   ... done (   0.1 sec)
Reading the grid                                   ... done
Mapping shells                                     ... done
Starting the XC term evaluation                    ... done (   0.2 sec)
  promolecular density results
     # of electrons  =     42.005913223
     EX              =    -31.602447353
     EC              =     -1.178108343
     EX+EC           =    -32.780555696
Transforming the Hamiltonian                       ... done (   0.0 sec)
Diagonalizing the Hamiltonian                      ... done (   0.0 sec)
Back transforming the eigenvectors                 ... done (   0.0 sec)
Now organizing SCF variables                       ... done
                      ------------------
                      INITIAL GUESS DONE (   0.6 sec)
                      ------------------
--------------
SCF ITERATIONS
--------------
ITER       Energy         Delta-E        Max-DP      RMS-DP      [F,P]   Gradient Norm
               ***  Starting incremental Fock matrix formation  ***
                             ****Resetting KDIIS****
                             ****Turning on KDIIS(Cayley)****
  0   -230.7893511508   0.000000000000 0.00385087  0.00024678  0.0350600   0.023911128
  1   -230.7927641055  -0.003412954680 0.00713964  0.00049334  0.0316835   0.021641824
  2   -230.7985398936  -0.005775788113 0.01413825  0.00104066  0.0258184   0.017791807
  3   -230.8077637986  -0.009223904958 0.02912665  0.00218070  0.0161455   0.011035099
  4   -230.8165859040  -0.008822105411 0.01055088  0.00065910  0.0060535   0.002893353
  5   -230.8176806244  -0.001094720453 0.00943259  0.00037839  0.0038216   0.001602047
  6   -230.8181077404  -0.000427115977 0.00605064  0.00028251  0.0029636   0.001609759
  7   -230.8184064422  -0.000298701833 0.00295789  0.00019232  0.0025493   0.001078706
  8   -230.8185561977  -0.000149755469 0.00637062  0.00041170  0.0021673   0.001205240
  9   -230.8188969840  -0.000340786295 0.00323470  0.00023636  0.0020236   0.000692907
 10   -230.8190870494  -0.000190065358 0.00259070  0.00016892  0.0019221   0.000625141
 11   -230.8192185989  -0.000131549556 0.00393775  0.00023870  0.0019622   0.000613786
 12   -230.8194071126  -0.000188513641 0.00180767  0.00010880  0.0019405   0.000589817
 13   -230.8194921064  -0.000084993813 0.00265791  0.00015806  0.0018483   0.000582690
 14   -230.8196138407  -0.000121734310 0.00260779  0.00015274  0.0017850   0.000580653
 15   -230.8197317482  -0.000117907550 0.00686971  0.00040416  0.0018512   0.000575761
 16   -230.8200377297  -0.000305981449 0.00644534  0.00037846  0.0016769   0.000554882
 17   -230.8203129635  -0.000275233773 0.00840593  0.00050405  0.0015280   0.000564840
 18   -230.8206533861  -0.000340422616 0.00429457  0.00026681  0.0013927   0.000560192
 19   -230.8208235090  -0.000170122947 0.00922151  0.00055801  0.0012899   0.000597143
               *** Restarting incremental Fock matrix formation ***
                             ****Resetting KDIIS****
 20   -230.8211514743  -0.000327965239 0.00022142  0.00001294  0.0012885   0.000607061
 21   -230.8211598561  -0.000008381863 0.00034684  0.00002594  0.0012879   0.000533509
 22   -230.8211755192  -0.000015663096 0.00245525  0.00016551  0.0012820   0.000497161
 23   -230.8212691021  -0.000093582861 0.01604366  0.00114999  0.0012447   0.000453215
 24   -230.8218283062  -0.000559204129 0.00248038  0.00017472  0.0009184   0.000371173
 25   -230.8219040735  -0.000075767271 0.00235188  0.00016605  0.0008548   0.000396849
 26   -230.8219730203  -0.000068946854 0.00055390  0.00003288  0.0008023   0.000344785
 27   -230.8219748465  -0.000001826152 0.00266064  0.00017808  0.0008267   0.000346908
 28   -230.8219065125   0.000068334015 0.00417424  0.00027365  0.0008370   0.000370724
 29   -230.8218837815   0.000022731005 0.00396935  0.00024748  0.0008254   0.000333787
 30   -230.8218318991   0.000051882385 0.00280292  0.00017144  0.0008225   0.000303412
 31   -230.8218191104   0.000012788683 0.00262301  0.00016749  0.0008009   0.000274204
 32   -230.8218263346  -0.000007224215 0.00340247  0.00020028  0.0007369   0.000318034
 33   -230.8218184279   0.000007906682 0.00304736  0.00019063  0.0007115   0.000234188
 34   -230.8218355084  -0.000017080444 0.00219784  0.00013168  0.0006319   0.000218763
 35   -230.8218490131  -0.000013504711 0.00181408  0.00012230  0.0005851   0.000199244
 36   -230.8218687497  -0.000019736596 0.00240031  0.00015503  0.0005221   0.000196404
 37   -230.8218913929  -0.000022643233 0.00232879  0.00012520  0.0004471   0.000184000
 38   -230.8219138736  -0.000022480650 0.00142744  0.00009230  0.0004585   0.000194442
 39   -230.8219283364  -0.000014462817 0.00170657  0.00009033  0.0003424   0.000154826
               *** Restarting incremental Fock matrix formation ***
                             ****Resetting KDIIS****
 40   -230.8219444720  -0.000016135602 0.00005028  0.00000336  0.0003335   0.000145913
                          ***Energy convergence achieved***
 41   -230.8219451120  -0.000000639987 0.00016810  0.00000956  0.0003311   0.000143211
 42   -230.8219469105  -0.000001798567 0.00107234  0.00006205  0.0003243   0.000141848
 43   -230.8219583872  -0.000011476644 0.00205632  0.00011714  0.0002823   0.000137853
 44   -230.8219794605  -0.000021073348 0.00215542  0.00013121  0.0003128   0.000135555
 45   -230.8219621747   0.000017285822 0.00091010  0.00005468  0.0002966   0.000191798
 46   -230.8219579201   0.000004254562 0.00369531  0.00021492  0.0003092   0.000138976
                          ***Energy convergence achieved***
 47   -230.8219572428   0.000000677353 0.00229315  0.00013948  0.0002286   0.000135129
 48   -230.8219499646   0.000007278233 0.00130106  0.00008163  0.0002354   0.000075449
 49   -230.8219542005  -0.000004235908 0.00069808  0.00004440  0.0001957   0.000070982
                          ***Energy convergence achieved***
 50   -230.8219540781   0.000000122411 0.00160254  0.00009692  0.0001836   0.000070493
 51   -230.8219577681  -0.000003690042 0.00021975  0.00001440  0.0001229   0.000051716
                          ***Energy convergence achieved***
 52   -230.8219580372  -0.000000269148 0.00042556  0.00002777  0.0001193   0.000059571
 53   -230.8219593532  -0.000001316002 0.00041659  0.00002449  0.0001008   0.000041052
                          ***Energy convergence achieved***
 54   -230.8219603265  -0.000000973264 0.00035409  0.00002368  0.0000912   0.000044388
 55   -230.8219611511  -0.000000824605 0.00050211  0.00002682  0.0000791   0.000034010
 56   -230.8219619968  -0.000000845720 0.00026213  0.00001580  0.0000677   0.000036604
 57   -230.8219624262  -0.000000429409 0.00045175  0.00002429  0.0000625   0.000029028
 58   -230.8219631392  -0.000000712982 0.00015129  0.00000819  0.0000748   0.000032952

            ***Energy convergence in two consecutive cycles with***
                    ***'reasonable' density convergence***
                       *** signaling convergence ***

                    *** KDIIS BlockDiag ( 0.001 sec) ***

               *****************************************************
               *                     SUCCESS                       *
               *           SCF CONVERGED AFTER  59 CYCLES          *
               *****************************************************

Setting up the final grid:

General Integration Accuracy     IntAcc      ...  4.670
Radial Grid Type                 RadialGrid  ... Gauss-Chebyshev
Angular Grid (max. acc.)         AngularGrid ... Lebedev-302
Angular grid pruning method      GridPruning ... 3 (G Style)
Weight generation scheme         WeightScheme... Becke
Basis function cutoff            BFCut       ...    1.0000e-10
Integration weight cutoff        WCut        ...    1.0000e-14
Grids for H and He will be reduced by one unit

# of grid points (after initial pruning)     ...  57636 (   0.0 sec)
# of grid points (after weights+screening)   ...  54599 (   0.1 sec)
nearest neighbour list constructed           ...    0.0 sec
Grid point re-assignment to atoms done       ...    0.0 sec
Grid point division into batches done        ...    0.2 sec
Reduced shell lists constructed in    0.8 sec

Total number of grid points                  ...    54599
Total number of batches                      ...      859
Average number of points per batch           ...       63
Average number of grid points per atom       ...     4550
Average number of shells per batch           ...    27.70 (57.72%)
Average number of basis functions per batch  ...    55.05 (57.34%)
Average number of large shells per batch     ...    20.02 (72.25%)
Average number of large basis fcns per batch ...    39.13 (71.08%)
Maximum spatial batch extension              ...  19.84, 20.34, 19.05 au
Average spatial batch extension              ...   2.97,  3.00,  2.77 au

Final grid set up in    0.9 sec
Final integration                            ... done (   0.7 sec)
Change in XC energy                          ...    -0.001806903
Integrated number of electrons               ...    42.000002449
Previous integrated no of electrons          ...    42.005092036

----------------
TOTAL SCF ENERGY
----------------

Total Energy       :         -230.82377024 Eh           -6281.03411 eV

Components:
Nuclear Repulsion  :          130.71999048 Eh            3557.07178 eV
Electronic Energy  :         -361.54376072 Eh           -9838.10589 eV
One Electron Energy:         -567.27783654 Eh          -15436.41470 eV
Two Electron Energy:          205.73407582 Eh            5598.30882 eV

Virial components:
Potential Energy   :         -459.28906629 Eh          -12497.89087 eV
Kinetic Energy     :          228.46529605 Eh            6216.85676 eV
Virial Ratio       :            2.01032312


DFT components:
N(Alpha)           :       21.000001224634 electrons
N(Beta)            :       21.000001224634 electrons
N(Total)           :       42.000002449268 electrons
E(XC)              :      -22.747929252739 Eh       

---------------
SCF CONVERGENCE
---------------

  Last Energy change         ...   -1.9927e-07  Tolerance :   1.0000e-06
  Last MAX-Density change    ...    9.3640e-05  Tolerance :   1.0000e-05
  Last RMS-Density change    ...    5.0803e-06  Tolerance :   1.0000e-06
  Last DIIS Error            ...    6.0629e-05  Tolerance :   1.0000e-06

             **** THE GBW FILE WAS UPDATED (Scan_21.gbw) ****
             **** DENSITY FILE WAS UPDATED (Scan_21.scfp.tmp) ****
             **** ENERGY FILE WAS UPDATED (Scan_21.en.tmp) ****
----------------
ORBITAL ENERGIES
----------------

  NO   OCC          E(Eh)            E(eV) 
   0   2.0000     -10.414859      -283.4027 
   1   2.0000     -10.414212      -283.3851 
   2   2.0000     -10.414082      -283.3816 
   3   2.0000     -10.413990      -283.3791 
   4   2.0000     -10.396953      -282.9155 
   5   2.0000     -10.396762      -282.9103 
   6   2.0000      -0.774791       -21.0831 
   7   2.0000      -0.760608       -20.6972 
   8   2.0000      -0.751792       -20.4573 
   9   2.0000      -0.732170       -19.9234 
  10   2.0000      -0.720828       -19.6147 
  11   2.0000      -0.713416       -19.4130 
  12   2.0000      -0.432712       -11.7747 
  13   2.0000      -0.430821       -11.7232 
  14   2.0000      -0.423601       -11.5268 
  15   2.0000      -0.416946       -11.3457 
  16   2.0000      -0.411429       -11.1956 
  17   2.0000      -0.378780       -10.3071 
  18   2.0000      -0.318408        -8.6643 
  19   2.0000      -0.265105        -7.2139 
  20   2.0000      -0.262861        -7.1528 
  21   0.0000      -0.103656        -2.8206 
  22   0.0000      -0.093398        -2.5415 
  23   0.0000      -0.077727        -2.1151 
  24   0.0000       0.010445         0.2842 
  25   0.0000       0.012835         0.3492 
  26   0.0000       0.024185         0.6581 
  27   0.0000       0.024682         0.6716 
  28   0.0000       0.037939         1.0324 
  29   0.0000       0.061758         1.6805 
  30   0.0000       0.195595         5.3224 
  31   0.0000       0.227993         6.2040 
  32   0.0000       0.228409         6.2153 
  33   0.0000       0.235695         6.4136 
  34   0.0000       0.245150         6.6709 
  35   0.0000       0.250781         6.8241 
  36   0.0000       0.539893        14.6912 
  37   0.0000       0.588367        16.0103 
  38   0.0000       0.599490        16.3130 
  39   0.0000       0.605440        16.4749 
  40   0.0000       0.630967        17.1695 
  41   0.0000       0.631240        17.1769 
  42   0.0000       0.648382        17.6434 
  43   0.0000       0.651271        17.7220 
  44   0.0000       0.688407        18.7325 
  45   0.0000       0.689165        18.7531 
  46   0.0000       0.715980        19.4828 
  47   0.0000       0.721745        19.6397 
  48   0.0000       0.734857        19.9965 
  49   0.0000       0.776744        21.1363 
  50   0.0000       0.782295        21.2873 
  51   0.0000       0.782596        21.2955 
  52   0.0000       0.783120        21.3098 
  53   0.0000       0.791734        21.5442 
  54   0.0000       0.866970        23.5914 
  55   0.0000       0.873463        23.7681 
  56   0.0000       0.877309        23.8728 
  57   0.0000       0.955924        26.0120 
  58   0.0000       0.974351        26.5134 
  59   0.0000       0.988978        26.9115 
  60   0.0000       0.990555        26.9544 
  61   0.0000       0.997349        27.1393 
  62   0.0000       0.998091        27.1594 
  63   0.0000       1.083102        29.4727 
  64   0.0000       1.085143        29.5282 
  65   0.0000       1.315634        35.8002 
  66   0.0000       1.716319        46.7034 
  67   0.0000       1.741149        47.3791 
  68   0.0000       1.744419        47.4681 
  69   0.0000       1.746153        47.5152 
  70   0.0000       1.750382        47.6303 
  71   0.0000       1.752924        47.6995 
  72   0.0000       1.754211        47.7345 
  73   0.0000       1.761865        47.9428 
  74   0.0000       1.765769        48.0490 
  75   0.0000       1.771659        48.2093 
  76   0.0000       1.775135        48.3039 
  77   0.0000       1.779426        48.4206 
  78   0.0000       1.781287        48.4713 
  79   0.0000       1.793281        48.7977 
  80   0.0000       1.797641        48.9163 
  81   0.0000       1.798245        48.9327 
  82   0.0000       1.803547        49.0770 
  83   0.0000       1.807130        49.1745 
  84   0.0000       1.864194        50.7273 
  85   0.0000       1.939847        52.7859 
  86   0.0000       1.941084        52.8196 
  87   0.0000       1.965778        53.4915 
  88   0.0000       1.972979        53.6875 
  89   0.0000       1.976304        53.7780 
  90   0.0000       2.205578        60.0168 
  91   0.0000       2.214575        60.2616 
  92   0.0000       2.221391        60.4471 
  93   0.0000       2.233003        60.7631 
  94   0.0000       2.238067        60.9009 
  95   0.0000       2.241817        61.0029 

                    ********************************
                    * MULLIKEN POPULATION ANALYSIS *
                    ********************************

-----------------------
MULLIKEN ATOMIC CHARGES
-----------------------
   0 C :   -0.156512
   1 H :    0.185990
   2 C :   -0.159239
   3 H :    0.185790
   4 C :   -0.229891
   5 H :    0.174884
   6 C :   -0.157973
   7 H :    0.185338
   8 C :   -0.159160
   9 H :    0.185594
  10 C :   -0.229922
  11 H :    0.175101
Sum of atomic charges:   -0.0000000

--------------------------------
MULLIKEN REDUCED ORBITAL CHARGES
--------------------------------
  0 C s       :     3.852719  s :     3.852719
      pz      :     1.176522  p :     2.288550
      px      :     0.623131
      py      :     0.488897
      dz2     :     0.012711  d :     0.015243
      dxz     :     0.001276
      dyz     :    -0.000072
      dx2y2   :     0.000471
      dxy     :     0.000856
  1 H s       :     0.814010  s :     0.814010
  2 C s       :     3.851091  s :     3.851091
      pz      :     1.175145  p :     2.292930
      px      :     0.908219
      py      :     0.209566
      dz2     :     0.012662  d :     0.015219
      dxz     :     0.000519
      dyz     :     0.000707
      dx2y2   :     0.000895
      dxy     :     0.000435
  3 H s       :     0.814210  s :     0.814210
  4 C s       :     3.806126  s :     3.806126
      pz      :     1.129470  p :     2.409585
      px      :     0.823380
      py      :     0.456734
      dz2     :     0.012149  d :     0.014180
      dxz     :     0.000077
      dyz     :     0.000837
      dx2y2   :     0.000662
      dxy     :     0.000456
  5 H s       :     0.825116  s :     0.825116
  6 C s       :     3.852792  s :     3.852792
      pz      :     1.172580  p :     2.289940
      px      :     0.638014
      py      :     0.479345
      dz2     :     0.012571  d :     0.015241
      dxz     :     0.001411
      dyz     :    -0.000071
      dx2y2   :     0.000470
      dxy     :     0.000860
  7 H s       :     0.814662  s :     0.814662
  8 C s       :     3.851515  s :     3.851515
      pz      :     1.173823  p :     2.292421
      px      :     0.902587
      py      :     0.216010
      dz2     :     0.012612  d :     0.015225
      dxz     :     0.000520
      dyz     :     0.000760
      dx2y2   :     0.000899
      dxy     :     0.000434
  9 H s       :     0.814406  s :     0.814406
 10 C s       :     3.806023  s :     3.806023
      pz      :     1.131433  p :     2.409722
      px      :     0.826104
      py      :     0.452185
      dz2     :     0.012210  d :     0.014177
      dxz     :     0.000074
      dyz     :     0.000782
      dx2y2   :     0.000649
      dxy     :     0.000463
 11 H s       :     0.824899  s :     0.824899


                     *******************************
                     * LOEWDIN POPULATION ANALYSIS *
                     *******************************

----------------------
LOEWDIN ATOMIC CHARGES
----------------------
   0 C :   -0.099406
   1 H :    0.129108
   2 C :   -0.101692
   3 H :    0.128961
   4 C :   -0.178892
   5 H :    0.123251
   6 C :   -0.101566
   7 H :    0.128766
   8 C :   -0.102047
   9 H :    0.128895
  10 C :   -0.178725
  11 H :    0.123347

-------------------------------
LOEWDIN REDUCED ORBITAL CHARGES
-------------------------------
  0 C s       :     3.656660  s :     3.656660
      pz      :     1.265891  p :     2.421658
      px      :     0.635440
      py      :     0.520328
      dz2     :     0.017504  d :     0.021088
      dxz     :     0.001676
      dyz     :     0.000093
      dx2y2   :     0.000704
      dxy     :     0.001110
  1 H s       :     0.870892  s :     0.870892
  2 C s       :     3.655137  s :     3.655137
      pz      :     1.264320  p :     2.425498
      px      :     0.928978
      py      :     0.232200
      dz2     :     0.017440  d :     0.021057
      dxz     :     0.000798
      dyz     :     0.001007
      dx2y2   :     0.001153
      dxy     :     0.000658
  3 H s       :     0.871039  s :     0.871039
  4 C s       :     3.615981  s :     3.615981
      pz      :     1.221893  p :     2.542775
      px      :     0.844322
      py      :     0.476560
      dz2     :     0.016991  d :     0.020137
      dxz     :     0.000359
      dyz     :     0.001266
      dx2y2   :     0.000886
      dxy     :     0.000635
  5 H s       :     0.876749  s :     0.876749
  6 C s       :     3.656784  s :     3.656784
      pz      :     1.261996  p :     2.423692
      px      :     0.650640
      py      :     0.511055
      dz2     :     0.017324  d :     0.021091
      dxz     :     0.001855
      dyz     :     0.000098
      dx2y2   :     0.000702
      dxy     :     0.001113
  7 H s       :     0.871234  s :     0.871234
  8 C s       :     3.655590  s :     3.655590
      pz      :     1.263034  p :     2.425391
      px      :     0.923659
      py      :     0.238698
      dz2     :     0.017371  d :     0.021066
      dxz     :     0.000799
      dyz     :     0.001082
      dx2y2   :     0.001159
      dxy     :     0.000655
  9 H s       :     0.871105  s :     0.871105
 10 C s       :     3.615869  s :     3.615869
      pz      :     1.223861  p :     2.542725
      px      :     0.846831
      py      :     0.472033
      dz2     :     0.017075  d :     0.020131
      dxz     :     0.000353
      dyz     :     0.001187
      dx2y2   :     0.000871
      dxy     :     0.000645
 11 H s       :     0.876653  s :     0.876653


                      *****************************
                      * MAYER POPULATION ANALYSIS *
                      *****************************

  NA   - Mulliken gross atomic population
  ZA   - Total nuclear charge
  QA   - Mulliken gross atomic charge
  VA   - Mayer's total valence
  BVA  - Mayer's bonded valence
  FA   - Mayer's free valence

  ATOM       NA         ZA         QA         VA         BVA        FA
  0 C      6.1565     6.0000    -0.1565     2.3764     2.3764    -0.0000
  1 H      0.8140     1.0000     0.1860     0.9067     0.9067    -0.0000
  2 C      6.1592     6.0000    -0.1592     2.3772     2.3772    -0.0000
  3 H      0.8142     1.0000     0.1858     0.9070     0.9070     0.0000
  4 C      6.2299     6.0000    -0.2299     2.7251     2.7251     0.0000
  5 H      0.8251     1.0000     0.1749     0.9135     0.9135     0.0000
  6 C      6.1580     6.0000    -0.1580     2.3784     2.3784    -0.0000
  7 H      0.8147     1.0000     0.1853     0.9069     0.9069     0.0000
  8 C      6.1592     6.0000    -0.1592     2.3802     2.3802    -0.0000
  9 H      0.8144     1.0000     0.1856     0.9070     0.9070    -0.0000
 10 C      6.2299     6.0000    -0.2299     2.7238     2.7238    -0.0000
 11 H      0.8249     1.0000     0.1751     0.9134     0.9134    -0.0000

  Mayer bond orders larger than 0.1
B(  0-C ,  1-H ) :   0.8944 B(  0-C ,  2-C ) :   0.3499 B(  0-C ,  4-C ) :   0.1317 
B(  0-C ,  6-C ) :   0.1543 B(  0-C ,  8-C ) :   0.1026 B(  0-C , 10-C ) :   0.7246 
B(  2-C ,  3-H ) :   0.8944 B(  2-C ,  4-C ) :   0.7322 B(  2-C ,  6-C ) :   0.1017 
B(  2-C ,  8-C ) :   0.1496 B(  2-C , 10-C ) :   0.1306 B(  4-C ,  5-H ) :   0.8904 
B(  4-C ,  6-C ) :   0.7248 B(  4-C ,  8-C ) :   0.1323 B(  4-C , 10-C ) :   0.1054 
B(  6-C ,  7-H ) :   0.8945 B(  6-C ,  8-C ) :   0.3509 B(  6-C , 10-C ) :   0.1331 
B(  8-C ,  9-H ) :   0.8945 B(  8-C , 10-C ) :   0.7314 B( 10-C , 11-H ) :   0.8904 


-------
TIMINGS
-------

Total SCF time: 0 days 0 hours 2 min 5 sec 

Total time                  ....     125.744 sec
Sum of individual times     ....     124.878 sec  ( 99.3%)

Fock matrix formation       ....     123.319 sec  ( 98.1%)
  XC integration            ....      12.788 sec  ( 10.4% of F)
    Basis function eval.    ....       6.307 sec  ( 49.3% of XC)
    Density eval.           ....       0.914 sec  (  7.1% of XC)
    XC-Functional eval.     ....       2.854 sec  ( 22.3% of XC)
    XC-Potential eval.      ....       1.076 sec  (  8.4% of XC)
Diagonalization             ....       0.058 sec  (  0.0%)
Density matrix formation    ....       0.007 sec  (  0.0%)
Population analysis         ....       0.013 sec  (  0.0%)
Initial guess               ....       0.340 sec  (  0.3%)
Orbital Transformation      ....       0.000 sec  (  0.0%)
Orbital Orthonormalization  ....       0.000 sec  (  0.0%)
DIIS solution               ....       0.000 sec  (  0.0%)
Grid generation             ....       1.139 sec  (  0.9%)


-------------------------------------------------------------------------------
                          DFT DISPERSION CORRECTION                            
                                                                               
                              DFTD3 V3.1  Rev 1                                
                              USING zero damping                               
-------------------------------------------------------------------------------
The omegaB97X-D3 functional is recognized. Fit by Chai et al.
Active option DFTDOPT                   ...         3   

molecular C6(AA) [au] = 2478.680660 


            DFT-D V3
 parameters
 s6 scaling factor         :     1.0000 
 rs6 scaling factor        :     1.2810 
 s8 scaling factor         :     1.0000 
 rs8 scaling factor        :     1.0940 
 Damping factor alpha6     :    14.0000 
 Damping factor alpha8     :    16.0000 
 ad hoc parameters k1-k3   :    16.0000     1.3333    -4.0000 

 Edisp/kcal,au: -2.589192178700  -0.004126139938 
 E6   /kcal   :  -1.204908583 
 E8   /kcal   :  -1.384283595 
 % E8         :  53.463918467 

-------------------------   ----------------
Dispersion correction           -0.004126140
-------------------------   ----------------


-------------------------   --------------------
FINAL SINGLE POINT ENERGY      -230.827896381063
-------------------------   --------------------


                            ***************************************
                            *     ORCA property calculations      *
                            ***************************************

                                    ---------------------
                                    Active property flags
                                    ---------------------
   (+) Dipole Moment


------------------------------------------------------------------------------
                       ORCA ELECTRIC PROPERTIES CALCULATION
------------------------------------------------------------------------------

Dipole Moment Calculation                       ... on
Quadrupole Moment Calculation                   ... off
Polarizability Calculation                      ... off
GBWName                                         ... Scan_21.gbw
Electron density file                           ... Scan_21.scfp.tmp

-------------
DIPOLE MOMENT
-------------
                                X             Y             Z
Electronic contribution:      0.01137       0.00160      -0.00147
Nuclear contribution   :      0.00905      -0.00014      -0.00005
                        -----------------------------------------
Total Dipole Moment    :      0.02043       0.00147      -0.00152
                        -----------------------------------------
Magnitude (a.u.)       :      0.02054
Magnitude (Debye)      :      0.05220


Timings for individual modules:

Sum of individual times         ...      126.109 sec (=   2.102 min)
GTO integral calculation        ...        0.340 sec (=   0.006 min)   0.3 %
SCF iterations                  ...      125.769 sec (=   2.096 min)  99.7 %
                             ****ORCA TERMINATED NORMALLY****
TOTAL RUN TIME: 0 days 0 hours 2 minutes 6 seconds 462 msec
