
                                 *****************
                                 * O   R   C   A *
                                 *****************

           --- An Ab Initio, DFT and Semiempirical electronic structure package ---

                  #######################################################
                  #                        -***-                        #
                  #  Department of molecular theory and spectroscopy    #
                  #              Directorship: Frank Neese              #
                  # Max Planck Institute for Chemical Energy Conversion #
                  #                  D-45470 Muelheim/Ruhr              #
                  #                       Germany                       #
                  #                                                     #
                  #                  All rights reserved                #
                  #                        -***-                        #
                  #######################################################


                         Program Version 4.0.0.2 - RELEASE -


 With contributions from (in alphabetic order):
   Daniel Aravena         : Magnetic Properties
   Michael Atanasov       : Ab Initio Ligand Field Theory
   Ute Becker             : Parallelization
   Martin Brehm           : Molecular dynamics
   Dmytro Bykov           : SCF Hessian
   Vijay G. Chilkuri      : MRCI spin determinant printing
   Dipayan Datta          : RHF DLPNO-CCSD density
   Achintya Kumar Dutta   : EOM-CC, STEOM-CC
   Dmitry Ganyushin       : Spin-Orbit,Spin-Spin,Magnetic field MRCI
   Yang Guo               : DLPNO-NEVPT2, CIM, IAO-localization
   Andreas Hansen         : Spin unrestricted coupled pair/coupled cluster methods
   Lee Huntington         : MR-EOM, pCC
   Robert Izsak           : Overlap fitted RIJCOSX, COSX-SCS-MP3, EOM
   Christian Kollmar      : KDIIS, OOCD, Brueckner-CCSD(T), CCSD density
   Simone Kossmann        : Meta GGA functionals, TD-DFT gradient, OOMP2, MP2 Hessian
   Martin Krupicka        : AUTO-CI
   Dagmar Lenk            : GEPOL surface
   Dimitrios Liakos       : Extrapolation schemes; parallel MDCI
   Dimitrios Manganas     : ROCIS; embedding schemes
   Dimitrios Pantazis     : SARC Basis sets
   Taras Petrenko         : DFT Hessian,TD-DFT gradient, ASA, ECA, R-Raman, ABS, FL, XAS/XES, NRVS
   Peter Pinski           : DLPNO-MP2
   Christoph Reimann      : Effective Core Potentials
   Marius Retegan         : Local ZFS, SOC
   Christoph Riplinger    : Optimizer, TS searches, QM/MM, DLPNO-CCSD(T), (RO)-DLPNO pert. Triples
   Tobias Risthaus        : Range-separated hybrids, TD-DFT gradient, RPA, STAB
   Michael Roemelt        : Restricted open shell CIS
   Masaaki Saitow         : Open-shell DLPNO
   Barbara Sandhoefer     : DKH picture change effects
   Kantharuban Sivalingam : CASSCF convergence, NEVPT2, FIC-MRCI
   Georgi Stoychev        : AutoAux
   Boris Wezisla          : Elementary symmetry handling
   Frank Wennmohs         : Technical directorship


 We gratefully acknowledge several colleagues who have allowed us to
 interface, adapt or use parts of their codes:
   Stefan Grimme, W. Hujo, H. Kruse,             : VdW corrections, initial TS optimization,
                  C. Bannwarth                     DFT functionals, gCP, sTDA/sTD-DF
   Ed Valeev                                     : LibInt (2-el integral package), F12 methods
   Garnet Chan, S. Sharma, J. Yang, R. Olivares  : DMRG
   Ulf Ekstrom                                   : XCFun DFT Library
   Mihaly Kallay                                 : mrcc  (arbitrary order and MRCC methods)
   Jiri Pittner, Ondrej Demel                    : Mk-CCSD
   Frank Weinhold                                : gennbo (NPA and NBO analysis)
   Christopher J. Cramer and Donald G. Truhlar   : smd solvation model


 Your calculation uses the libint2 library for the computation of 2-el integrals
 For citations please refer to: http://libint.valeyev.net

 This ORCA versions uses:
   CBLAS   interface :  Fast vector & matrix operations
   LAPACKE interface :  Fast linear algebra routines
   SCALAPACK package :  Parallel linear algebra routines


Your calculation utilizes the atom-pairwise dispersion correction
with the zero-damping scheme (D30)
Cite in your paper:
S.Grimme, J.Antony, S.Ehrlich and H.Krieg, J.Chem.Phys., 132, (2010), 154104 
   

XCFun DFT library Copyright 2009-2010 Ulf Ekstrom and contributors.
See http://admol.org/xcfun for more information. This is free soft-
ware; see the source code for copying conditions. There is ABSOLUTELY
NO WARRANTY; not even for MERCHANTABILITY or FITNESS FOR A PARTICULAR
PURPOSE. For details see the documentation. Scientific users of this 
library should cite U. Ekstrom, L. Visscher, R. Bast, A. J. Thorvald-
sen and K. Ruud; J.Chem.Theor.Comp. 2010, DOI: 10.1021/ct100117s
XCFun Version 0.99 
Your calculation utilizes the basis: 6-31G(d)
   H-He, Li-Ne : W. J. Hehre, R. Ditchfield and J.A. Pople, J. Chem. Phys. 56, 2257 (1972).
                 Note: He and Ne are unpublished basis sets taken from the Gaussian program.
                 Note: Li and B from J. D. Dill and J. A. Pople, J. Chem. Phys. 62, 2921 (1975).
   Na - Ar     : M. M. Francl, W. J. Pietro, W. J. Hehre, J. S. Binkley, M. S. Gordon, 
                 D. J. DeFrees and J. A. Pople, J. Chem. Phys. 77, 3654 (1982).
   K - Zn      : V. A. Rassolov, J. A. Pople, M. A. Ratner, and T. L. Windus, J. Chem. Phys. 109, 1223 (1998).

================================================================================
                                        WARNINGS
                       Please study these warnings very carefully!
================================================================================

Warning: TCutStore was < 0. Adjusted to Thresh (uncritical)

INFO   : the flag for use of LIBINT has been found!

================================================================================
                                       INPUT FILE
================================================================================
NAME = initial22.inp
|  1> ! WB97X-D3 6-31G(d) VerySlowConv
|  2> ! KDIIS NOSOSCF
|  3> %base "Scan_22"
|  4> 
|  5> %scf
|  6> maxiter 999
|  7> end
|  8> 
|  9> * xyz 0 1
| 10> C          2.651013200932   -2.936049796081   -0.326838428344
| 11> H          2.544360844963   -2.927842246767   -1.428020421422
| 12> C          1.556004914350   -0.655012996498    0.329558888884
| 13> H          1.492460174918   -0.744798862968    1.430489826020
| 14> C         -0.965009246050   -0.463219922757   -0.334317622270
| 15> H         -0.916163514773   -0.567665015599   -1.434715129644
| 16> C         -2.390100132181   -2.549806396599    0.335319085401
| 17> H         -2.274773681424   -2.558318436406    1.435642318975
| 18> C         -1.298962521232   -4.829134584906   -0.333462154999
| 19> H         -1.235509790609   -4.734318046542   -1.433968681881
| 20> C          1.222016067536   -5.024114337323    0.329670445679
| 21> H          1.173273683569   -4.925829357553    1.430641873600
| 22> **                         ****END OF INPUT****
================================================================================

                       ****************************
                       * Single Point Calculation *
                       ****************************

---------------------------------
CARTESIAN COORDINATES (ANGSTROEM)
---------------------------------
  C      2.651013   -2.936050   -0.326838
  H      2.544361   -2.927842   -1.428020
  C      1.556005   -0.655013    0.329559
  H      1.492460   -0.744799    1.430490
  C     -0.965009   -0.463220   -0.334318
  H     -0.916164   -0.567665   -1.434715
  C     -2.390100   -2.549806    0.335319
  H     -2.274774   -2.558318    1.435642
  C     -1.298963   -4.829135   -0.333462
  H     -1.235510   -4.734318   -1.433969
  C      1.222016   -5.024114    0.329670
  H      1.173274   -4.925829    1.430642

----------------------------
CARTESIAN COORDINATES (A.U.)
----------------------------
  NO LB      ZA    FRAG     MASS         X           Y           Z
   0 C     6.0000    0    12.011    5.009689   -5.548330   -0.617635
   1 H     1.0000    0     1.008    4.808145   -5.532820   -2.698568
   2 C     6.0000    0    12.011    2.940423   -1.237795    0.622776
   3 H     1.0000    0     1.008    2.820341   -1.407466    2.703234
   4 C     6.0000    0    12.011   -1.823603   -0.875359   -0.631769
   5 H     1.0000    0     1.008   -1.731298   -1.072731   -2.711219
   6 C     6.0000    0    12.011   -4.516635   -4.818436    0.633661
   7 H     1.0000    0     1.008   -4.298699   -4.834521    2.712971
   8 C     6.0000    0    12.011   -2.454683   -9.125742   -0.630152
   9 H     1.0000    0     1.008   -2.334775   -8.946565   -2.709808
  10 C     6.0000    0    12.011    2.309276   -9.494200    0.622987
  11 H     1.0000    0     1.008    2.217166   -9.308468    2.703521

--------------------------------
INTERNAL COORDINATES (ANGSTROEM)
--------------------------------
 C      0   0   0     0.000000000000     0.00000000     0.00000000
 H      1   0   0     1.106365161589     0.00000000     0.00000000
 C      1   2   0     2.614006401446   101.71691157     0.00000000
 H      3   1   2     1.106412384272   101.71881798   170.00524487
 C      3   1   2     2.614006312566   113.84413339    61.42368090
 H      5   3   1     1.106421871222   101.71730363   298.89141405
 C      5   3   1     2.614027633139   113.71265767    47.43857652
 H      7   5   3     1.106383235325   101.77573254    60.91182906
 C      7   5   3     2.614036461787   113.76072436   312.26653563
 H      9   7   5     1.106404555613   101.75297037   299.15625154
 C      1   2   3     2.614010374371   101.72421316   117.73963380
 H     11   1   2     1.106423898125   101.71462163   189.97590341

---------------------------
INTERNAL COORDINATES (A.U.)
---------------------------
 C      0   0   0     0.000000000000     0.00000000     0.00000000
 H      1   0   0     2.090727159515     0.00000000     0.00000000
 C      1   2   0     4.939756211049   101.71691157     0.00000000
 H      3   1   2     2.090816397453   101.71881798   170.00524487
 C      3   1   2     4.939756043091   113.84413339    61.42368090
 H      5   3   1     2.090834325190   101.71730363   298.89141405
 C      5   3   1     4.939796333135   113.71265767    47.43857652
 H      7   5   3     2.090761313926   101.77573254    60.91182906
 C      7   5   3     4.939813016861   113.76072436   312.26653563
 H      9   7   5     2.090801603431   101.75297037   299.15625154
 C      1   2   3     4.939763718789   101.72421316   117.73963380
 H     11   1   2     2.090838155481   101.71462163   189.97590341

---------------------
BASIS SET INFORMATION
---------------------
There are 2 groups of distinct atoms

 Group   1 Type C   : 10s4p1d contracted to 3s2p1d pattern {631/31/1}
 Group   2 Type H   : 4s contracted to 2s pattern {31}

Atom   0C    basis set group =>   1
Atom   1H    basis set group =>   2
Atom   2C    basis set group =>   1
Atom   3H    basis set group =>   2
Atom   4C    basis set group =>   1
Atom   5H    basis set group =>   2
Atom   6C    basis set group =>   1
Atom   7H    basis set group =>   2
Atom   8C    basis set group =>   1
Atom   9H    basis set group =>   2
Atom  10C    basis set group =>   1
Atom  11H    basis set group =>   2
------------------------------------------------------------------------------
                           ORCA GTO INTEGRAL CALCULATION
------------------------------------------------------------------------------

                         BASIS SET STATISTICS AND STARTUP INFO

 # of primitive gaussian shells          ...  114
 # of primitive gaussian functions       ...  186
 # of contracted shells                  ...   48
 # of contracted basis functions         ...   96
 Highest angular momentum                ...    2
 Maximum contraction depth               ...    6
 Integral package used                   ... LIBINT
 Integral threshhold            Thresh   ...  1.000e-10
 Primitive cut-off              TCut     ...  1.000e-11


------------------------------ INTEGRAL EVALUATION ----------------------------


 * One electron integrals 
 Pre-screening matrix                    ... done
 Shell pair data                         ... done (   0.001 sec)

-------------------------------------------------------------------------------
                                 ORCA SCF
-------------------------------------------------------------------------------

------------
SCF SETTINGS
------------
Hamiltonian:
 Density Functional     Method          .... DFT(GTOs)
 Exchange Functional    Exchange        .... WB97X-D3
 Correlation Functional Correlation     .... WB97X-D3
 Gradients option       PostSCFGGA      .... off
 Hybrid DFT is turned on
   Fraction HF Exchange ScalHFX         ....  0.195728
   Scaling of DF-GGA-X  ScalDFX         ....  0.000000
   Scaling of DF-GGA-C  ScalDFC         ....  1.000000
   Scaling of DF-LDA-C  ScalLDAC        ....  1.000000
   Perturbative correction              ....  0.000000
 Long-range corrected/Screened/Range-Separated Hybrid DFT is turned on
   Amount of maximum screened exact exchange              ....  0.804272
   Range separation parameter mu (erf(mu*r12)/r12)        ....  0.250000


General Settings:
 Integral files         IntName         .... Scan_22
 Hartree-Fock type      HFTyp           .... RHF
 Total Charge           Charge          ....    0
 Multiplicity           Mult            ....    1
 Number of Electrons    NEL             ....   42
 Basis Dimension        Dim             ....   96
 Nuclear Repulsion      ENuc            ....    124.9207673065 Eh

Convergence Acceleration:
 DIIS                   CNVDIIS         .... on
   Start iteration      DIISMaxIt       ....     0
   Startup error        DIISStart       ....  0.200000
   # of expansion vecs  DIISMaxEq       ....     5
   Bias factor          DIISBfac        ....   1.050
   Max. coefficient     DIISMaxC        ....  10.000
 Newton-Raphson         CNVNR           .... off
 SOSCF                  CNVSOSCF        .... off
 Level Shifting         CNVShift        .... off
 Zerner damping         CNVZerner       .... off
 Static damping         CNVDamp         .... off
 Fernandez-Rico         CNVRico         .... off

SCF Procedure:
 Maximum # iterations   MaxIter         ....   999
 SCF integral mode      SCFMode         .... Direct
   Integral package                     .... LIBINT
 Reset frequeny         DirectResetFreq ....    20
 Integral Threshold     Thresh          ....  1.000e-10 Eh
 Primitive CutOff       TCut            ....  1.000e-11 Eh

Convergence Tolerance:
 Convergence Check Mode ConvCheckMode   .... All-Criteria
 Convergence forced     ConvForced      .... 0
 Energy Change          TolE            ....  1.000e-06 Eh
 Max Density Change     TolMaxP         ....  1.000e-05
 RMS Density Change     TolRMSP         ....  1.000e-06
 DIIS Error             TolErr          ....  1.000e-06


Diagonalization of the overlap matrix:
Smallest eigenvalue                        ... 3.628e-02
Time for diagonalization                   ...    0.002 sec
Threshold for overlap eigenvalues          ... 1.000e-08
Number of eigenvalues below threshold      ... 0
Time for construction of square roots      ...    0.006 sec
Total time needed                          ...    0.008 sec

-------------------
DFT GRID GENERATION
-------------------

General Integration Accuracy     IntAcc      ...  4.340
Radial Grid Type                 RadialGrid  ... Gauss-Chebyshev
Angular Grid (max. acc.)         AngularGrid ... Lebedev-110
Angular grid pruning method      GridPruning ... 3 (G Style)
Weight generation scheme         WeightScheme... Becke
Basis function cutoff            BFCut       ...    1.0000e-10
Integration weight cutoff        WCut        ...    1.0000e-14
Grids for H and He will be reduced by one unit

# of grid points (after initial pruning)     ...  14700 (   0.0 sec)
# of grid points (after weights+screening)   ...  14036 (   0.0 sec)
nearest neighbour list constructed           ...    0.0 sec
Grid point re-assignment to atoms done       ...    0.0 sec
Grid point division into batches done        ...    0.0 sec
Reduced shell lists constructed in    0.2 sec

Total number of grid points                  ...    14036
Total number of batches                      ...      224
Average number of points per batch           ...       62
Average number of grid points per atom       ...     1170
Average number of shells per batch           ...    30.24 (62.99%)
Average number of basis functions per batch  ...    60.04 (62.54%)
Average number of large shells per batch     ...    21.26 (70.31%)
Average number of large basis fcns per batch ...    42.19 (70.27%)
Maximum spatial batch extension              ...  22.06, 28.10, 19.61 au
Average spatial batch extension              ...   4.78,  4.79,  4.27 au

Time for grid setup =    0.233 sec

------------------------------
INITIAL GUESS: MODEL POTENTIAL
------------------------------
Loading Hartree-Fock densities                     ... done
Calculating cut-offs                               ... done
Setting up the integral package                    ... done
Initializing the effective Hamiltonian             ... done
Starting the Coulomb interaction                   ... done (   0.1 sec)
Reading the grid                                   ... done
Mapping shells                                     ... done
Starting the XC term evaluation                    ... done (   0.1 sec)
  promolecular density results
     # of electrons  =     42.002476308
     EX              =    -31.585672336
     EC              =     -1.169569419
     EX+EC           =    -32.755241755
Transforming the Hamiltonian                       ... done (   0.0 sec)
Diagonalizing the Hamiltonian                      ... done (   0.0 sec)
Back transforming the eigenvectors                 ... done (   0.0 sec)
Now organizing SCF variables                       ... done
                      ------------------
                      INITIAL GUESS DONE (   0.5 sec)
                      ------------------
--------------
SCF ITERATIONS
--------------
ITER       Energy         Delta-E        Max-DP      RMS-DP      [F,P]   Gradient Norm
               ***  Starting incremental Fock matrix formation  ***
                             ****Resetting KDIIS****
                             ****Turning on KDIIS(Cayley)****
  0   -230.7270528515   0.000000000000 0.00559650  0.00028974  0.0341841   0.025393068
  1   -230.7314682602  -0.004415408641 0.00558181  0.00045466  0.0308306   0.022472385
  2   -230.7373082136  -0.005839953368 0.01236489  0.00105398  0.0250963   0.018506392
  3   -230.7473875756  -0.010079362091 0.02985349  0.00259069  0.0156273   0.011395298
  4   -230.7585391882  -0.011151612579 0.01009941  0.00059787  0.0062917   0.002163169
  5   -230.7597972090  -0.001258020752 0.00881804  0.00047963  0.0053267   0.002051060
  6   -230.7607709399  -0.000973730881 0.00579105  0.00044673  0.0046666   0.001644251
  7   -230.7616439377  -0.000872997859 0.00351153  0.00028432  0.0041709   0.001490972
  8   -230.7621587626  -0.000514824846 0.00379356  0.00028277  0.0040286   0.001526167
  9   -230.7627002774  -0.000541514845 0.00341584  0.00026469  0.0045334   0.001398098
 10   -230.7632163563  -0.000516078897 0.00259205  0.00016583  0.0046058   0.001394298
 11   -230.7635310882  -0.000314731866 0.00042118  0.00002903  0.0046967   0.001402570
 12   -230.7634886485   0.000042439656 0.00348775  0.00027285  0.0047218   0.001395718
 13   -230.7639922222  -0.000503573725 0.00386139  0.00022816  0.0048531   0.001431672
 14   -230.7636202848   0.000371937480 0.00708904  0.00054934  0.0044871   0.001516957
 15   -230.7644455421  -0.000825257389 0.00147641  0.00013887  0.0054526   0.001376952
 16   -230.7646579838  -0.000212441626 0.00404499  0.00028600  0.0053593   0.001320270
 17   -230.7651663120  -0.000508328274 0.00757237  0.00059374  0.0053087   0.001321108
 18   -230.7661588253  -0.000992513297 0.01928454  0.00146618  0.0054562   0.001340858
 19   -230.7683934494  -0.002234624089 0.00423867  0.00015233  0.0045314   0.001308976
               *** Restarting incremental Fock matrix formation ***
                             ****Resetting KDIIS****
 20   -230.7684314077  -0.000037958241 0.00073562  0.00003207  0.0038885   0.001496202
 21   -230.7684819406  -0.000050532883 0.00092387  0.00006292  0.0039861   0.001309019
 22   -230.7685756336  -0.000093693049 0.00693972  0.00053308  0.0040026   0.001210100
 23   -230.7692910353  -0.000715401740 0.07272882  0.00478873  0.0039591   0.001073856
 24   -230.7720364574  -0.002745422032 0.00311509  0.00018149  0.0077632   0.004127919
 25   -230.7721882424  -0.000151785023 0.02746826  0.00176317  0.0068475   0.003655630
 26   -230.7721916828  -0.000003440377 0.04418142  0.00266979  0.0018259   0.000793315
 27   -230.7727401115  -0.000548428700 0.01105665  0.00072979  0.0065624   0.003439270
 28   -230.7733574505  -0.000617339006 0.01805873  0.00104721  0.0011562   0.000601858
 29   -230.7737528240  -0.000395373550 0.01770760  0.00109918  0.0008997   0.000413597
 30   -230.7740063475  -0.000253523415 0.00141578  0.00008568  0.0018640   0.000973540
 31   -230.7740215332  -0.000015185793 0.01612467  0.00094061  0.0019695   0.001019286
 32   -230.7738379467   0.000183586581 0.01187774  0.00070431  0.0008360   0.000408949
 33   -230.7740299761  -0.000192029431 0.00041990  0.00002281  0.0008041   0.000239585
 34   -230.7740337909  -0.000003814798 0.00308099  0.00018203  0.0007786   0.000218827
 35   -230.7740819309  -0.000048139966 0.00990624  0.00057335  0.0007449   0.000217995
 36   -230.7742220692  -0.000140138319 0.00204457  0.00010349  0.0006775   0.000256998
 37   -230.7742115982   0.000010470952 0.01927586  0.00113496  0.0006620   0.000234261
 38   -230.7744661625  -0.000254564246 0.01140320  0.00068037  0.0006614   0.000395972
 39   -230.7743222089   0.000143953574 0.01938286  0.00109978  0.0005999   0.000231535
               *** Restarting incremental Fock matrix formation ***
                             ****Resetting KDIIS****
 40   -230.7745650344  -0.000242825496 0.00016867  0.00000582  0.0004784   0.000269454
 41   -230.7745666720  -0.000001637657 0.00019504  0.00001027  0.0004812   0.000229086
 42   -230.7745693136  -0.000002641554 0.00064846  0.00003542  0.0004862   0.000209495
 43   -230.7745776696  -0.000008355999 0.00205513  0.00011036  0.0005016   0.000176687
 44   -230.7746017053  -0.000024035699 0.00064903  0.00003466  0.0005385   0.000152842
 45   -230.7745943111   0.000007394158 0.00148889  0.00008053  0.0005381   0.000152832
 46   -230.7745774323   0.000016878830 0.00180459  0.00009790  0.0005418   0.000150997
 47   -230.7745577891   0.000019643244 0.00095006  0.00005209  0.0005504   0.000150981
 48   -230.7745481427   0.000009646398 0.00060913  0.00003429  0.0005553   0.000148260
 49   -230.7745492682  -0.000001125517 0.00059585  0.00003682  0.0005600   0.000145926
 50   -230.7745518071  -0.000002538943 0.00259398  0.00016318  0.0005564   0.000148395
 51   -230.7745817800  -0.000029972846 0.00222238  0.00014152  0.0005487   0.000142967
 52   -230.7746062461  -0.000024466139 0.00215749  0.00014338  0.0005329   0.000146065
 53   -230.7746306100  -0.000024363836 0.00070902  0.00005023  0.0005205   0.000136373
 54   -230.7746387422  -0.000008132207 0.00189501  0.00012732  0.0005178   0.000135074
 55   -230.7746601948  -0.000021452608 0.00157487  0.00010769  0.0005078   0.000131488
 56   -230.7746782739  -0.000018079116 0.00113899  0.00008020  0.0004999   0.000132305
 57   -230.7746917687  -0.000013494801 0.00121178  0.00008713  0.0004978   0.000128957
 58   -230.7747068879  -0.000015119220 0.00205301  0.00014869  0.0004942   0.000129057
 59   -230.7747325479  -0.000025659953 0.00249576  0.00018490  0.0004913   0.000128914
               *** Restarting incremental Fock matrix formation ***
                             ****Resetting KDIIS****
 60   -230.7747646166  -0.000032068780 0.00003947  0.00000297  0.0004862   0.000129861
                          ***Energy convergence achieved***
 61   -230.7747651456  -0.000000528938 0.00009774  0.00000765  0.0004861   0.000128565
 62   -230.7747665023  -0.000001356769 0.00048054  0.00003759  0.0004859   0.000127897
 63   -230.7747731404  -0.000006638039 0.00110350  0.00008508  0.0004849   0.000127078
 64   -230.7747881382  -0.000014997866 0.00056189  0.00003227  0.0004826   0.000126687
 65   -230.7747830081   0.000005130137 0.00035578  0.00002552  0.0004785   0.000129401
 66   -230.7747786731   0.000004335041 0.00184137  0.00010116  0.0004862   0.000128622
 67   -230.7747651039   0.000013569167 0.00115236  0.00007106  0.0004800   0.000122760
 68   -230.7747764322  -0.000011328273 0.00152144  0.00009860  0.0004796   0.000121984
 69   -230.7747922993  -0.000015867084 0.00201357  0.00014146  0.0004778   0.000121076
 70   -230.7748152210  -0.000022921741 0.00049671  0.00003352  0.0004746   0.000120876
 71   -230.7748205428  -0.000005321822 0.00099247  0.00007097  0.0004732   0.000119663
 72   -230.7748322712  -0.000011728426 0.00101589  0.00006775  0.0004753   0.000119835
 73   -230.7748428942  -0.000010622901 0.00183190  0.00013768  0.0004698   0.000119038
 74   -230.7748652722  -0.000022378071 0.00199666  0.00015079  0.0004671   0.000118445
 75   -230.7748895339  -0.000024261725 0.00320276  0.00022933  0.0004623   0.000118249
 76   -230.7749264918  -0.000036957886 0.00413610  0.00028868  0.0004559   0.000118415
 77   -230.7749727182  -0.000046226356 0.00032349  0.00002191  0.0004456   0.000122072
 78   -230.7749694942   0.000003223950 0.00504423  0.00035508  0.0004558   0.000118756
 79   -230.7750255650  -0.000056070805 0.00022523  0.00001441  0.0004313   0.000127903
               *** Restarting incremental Fock matrix formation ***
                             ****Resetting KDIIS****
 80   -230.7750236276   0.000001937494 0.00004893  0.00000278  0.0004361   0.000121895
                          ***Energy convergence achieved***
 81   -230.7750240832  -0.000000455610 0.00011072  0.00000666  0.0004378   0.000120003
 82   -230.7750251769  -0.000001093784 0.00009512  0.00000569  0.0004393   0.000118808
                          ***Energy convergence achieved***
 83   -230.7750261060  -0.000000929091 0.00149525  0.00008787  0.0004415   0.000117547
 84   -230.7750120999   0.000014006125 0.00112142  0.00006557  0.0004502   0.000116635
 85   -230.7750021807   0.000009919256 0.00034978  0.00002502  0.0004517   0.000115404
 86   -230.7749998102   0.000002370430 0.00053183  0.00004320  0.0004502   0.000113292
 87   -230.7750060073  -0.000006197096 0.00064158  0.00004796  0.0004487   0.000113070
 88   -230.7750132639  -0.000007256584 0.00121265  0.00008751  0.0004461   0.000112216
 89   -230.7750265196  -0.000013255722 0.00049862  0.00003498  0.0004349   0.000113754
 90   -230.7750318820  -0.000005362404 0.00167717  0.00012097  0.0004426   0.000111463
 91   -230.7750502167  -0.000018334647 0.00142935  0.00010386  0.0004363   0.000110406
 92   -230.7750657711  -0.000015554458 0.00119040  0.00008737  0.0004306   0.000109551
 93   -230.7750789386  -0.000013167472 0.00130737  0.00009801  0.0004300   0.000108955
 94   -230.7750936404  -0.000014701804 0.00219179  0.00016332  0.0004279   0.000109033
 95   -230.7751179694  -0.000024329035 0.00169464  0.00012139  0.0004184   0.000110372
 96   -230.7751360323  -0.000018062889 0.00321474  0.00023324  0.0004228   0.000108266
 97   -230.7751702489  -0.000034216556 0.00335042  0.00023146  0.0004090   0.000109013
 98   -230.7752040066  -0.000033757697 0.00333944  0.00022569  0.0004021   0.000108305
 99   -230.7752364607  -0.000032454124 0.00384287  0.00025433  0.0003941   0.000109300
               *** Restarting incremental Fock matrix formation ***
                             ****Resetting KDIIS****
100   -230.7752726393  -0.000036178587 0.00004779  0.00000249  0.0003827   0.000109185
                          ***Energy convergence achieved***
101   -230.7752730027  -0.000000363405 0.00011359  0.00000616  0.0003839   0.000107613
102   -230.7752739042  -0.000000901511 0.00027621  0.00001505  0.0003846   0.000106574
103   -230.7752760983  -0.000002194117 0.00005511  0.00000283  0.0003858   0.000105371
                          ***Energy convergence achieved***
104   -230.7752763607  -0.000000262365 0.00162816  0.00008917  0.0003896   0.000105199
105   -230.7752638045   0.000012556190 0.00039986  0.00002385  0.0003953   0.000103389
106   -230.7752613189   0.000002485645 0.00022704  0.00001421  0.0003935   0.000102711
                          ***Energy convergence achieved***
107   -230.7752622982  -0.000000979308 0.00066504  0.00005153  0.0003951   0.000103210
108   -230.7752689692  -0.000006670990 0.00194378  0.00012226  0.0003895   0.000101301
109   -230.7752857510  -0.000016781823 0.00114307  0.00007180  0.0003807   0.000099497
110   -230.7752955653  -0.000009814326 0.00100242  0.00006570  0.0003811   0.000099330
111   -230.7753044423  -0.000008877000 0.00173340  0.00011259  0.0003770   0.000098886
112   -230.7753196242  -0.000015181919 0.00170776  0.00011543  0.0003736   0.000099059
113   -230.7753351638  -0.000015539543 0.00088419  0.00005735  0.0003753   0.000098692
114   -230.7753428139  -0.000007650173 0.00222089  0.00014826  0.0003679   0.000099359
115   -230.7753624572  -0.000019643237 0.00140368  0.00009378  0.0003618   0.000098053
116   -230.7753749028  -0.000012445642 0.00113839  0.00007669  0.0003607   0.000097696
117   -230.7753850129  -0.000010110039 0.00061550  0.00004033  0.0003541   0.000097626
118   -230.7753903803  -0.000005367468 0.00038243  0.00002523  0.0003535   0.000097511
119   -230.7753870944   0.000003285945 0.00055333  0.00003632  0.0003547   0.000097677
               *** Restarting incremental Fock matrix formation ***
                             ****Resetting KDIIS****
120   -230.7753917365  -0.000004642133 0.00003292  0.00000227  0.0003544   0.000097589
                          ***Energy convergence achieved***
121   -230.7753920392  -0.000000302641 0.00010153  0.00000681  0.0003537   0.000097416
122   -230.7753929445  -0.000000905380 0.00019449  0.00001287  0.0003533   0.000097407
123   -230.7753912383   0.000001706224 0.00078862  0.00005312  0.0003546   0.000097317
124   -230.7753842314   0.000007006872 0.00177338  0.00011045  0.0003568   0.000097025
125   -230.7753702827   0.000013948739 0.00012103  0.00000971  0.0003606   0.000095801
                          ***Energy convergence achieved***
126   -230.7753701811   0.000000101589 0.00021446  0.00001247  0.0003557   0.000095757
127   -230.7753691441   0.000001037063 0.00063116  0.00003228  0.0003584   0.000094882
128   -230.7753729535  -0.000003809418 0.00130442  0.00007842  0.0003543   0.000095060
129   -230.7753830952  -0.000010141767 0.00031891  0.00001970  0.0003515   0.000094419
130   -230.7753807486   0.000002346646 0.00037439  0.00002388  0.0003508   0.000094516
131   -230.7753838282  -0.000003079606 0.00074725  0.00004419  0.0003511   0.000094346
132   -230.7753781747   0.000005653464 0.00109081  0.00006742  0.0003501   0.000094218
133   -230.7753695430   0.000008631750 0.00063046  0.00004349  0.0003540   0.000094377
134   -230.7753648603   0.000004682733 0.00033374  0.00001830  0.0003546   0.000093550
135   -230.7753626514   0.000002208901 0.00049270  0.00004100  0.0003533   0.000093539
136   -230.7753595543   0.000003097038 0.00031065  0.00002016  0.0003575   0.000093080
                          ***Energy convergence achieved***
137   -230.7753597068  -0.000000152470 0.00094500  0.00006221  0.0003572   0.000093255
138   -230.7753545174   0.000005189367 0.00055211  0.00004223  0.0003584   0.000092276
                          ***Energy convergence achieved***
139   -230.7753536967   0.000000820666 0.00079919  0.00005569  0.0003593   0.000091669
               *** Restarting incremental Fock matrix formation ***
                             ****Resetting KDIIS****

            ***Energy convergence in two consecutive cycles with***
                    ***'reasonable' density convergence***
                       *** signaling convergence ***

                    *** KDIIS BlockDiag ( 0.001 sec) ***

               *****************************************************
               *                     SUCCESS                       *
               *           SCF CONVERGED AFTER 140 CYCLES          *
               *****************************************************

Setting up the final grid:

General Integration Accuracy     IntAcc      ...  4.670
Radial Grid Type                 RadialGrid  ... Gauss-Chebyshev
Angular Grid (max. acc.)         AngularGrid ... Lebedev-302
Angular grid pruning method      GridPruning ... 3 (G Style)
Weight generation scheme         WeightScheme... Becke
Basis function cutoff            BFCut       ...    1.0000e-10
Integration weight cutoff        WCut        ...    1.0000e-14
Grids for H and He will be reduced by one unit

# of grid points (after initial pruning)     ...  57636 (   0.0 sec)
# of grid points (after weights+screening)   ...  54752 (   0.1 sec)
nearest neighbour list constructed           ...    0.0 sec
Grid point re-assignment to atoms done       ...    0.0 sec
Grid point division into batches done        ...    0.2 sec
Reduced shell lists constructed in    0.7 sec

Total number of grid points                  ...    54752
Total number of batches                      ...      864
Average number of points per batch           ...       63
Average number of grid points per atom       ...     4563
Average number of shells per batch           ...    26.76 (55.76%)
Average number of basis functions per batch  ...    52.95 (55.16%)
Average number of large shells per batch     ...    18.38 (68.70%)
Average number of large basis fcns per batch ...    36.25 (68.46%)
Maximum spatial batch extension              ...  18.89, 22.31, 18.70 au
Average spatial batch extension              ...   3.00,  3.01,  2.83 au

Final grid set up in    0.8 sec
Final integration                            ... done (   0.6 sec)
Change in XC energy                          ...    -0.001294041
Integrated number of electrons               ...    41.999997590
Previous integrated no of electrons          ...    42.004334628

----------------
TOTAL SCF ENERGY
----------------

Total Energy       :         -230.77664839 Eh           -6279.75186 eV

Components:
Nuclear Repulsion  :          124.92076731 Eh            3399.26689 eV
Electronic Energy  :         -355.69741570 Eh           -9679.01875 eV
One Electron Energy:         -555.93460458 Eh          -15127.74967 eV
Two Electron Energy:          200.23718888 Eh            5448.73092 eV

Virial components:
Potential Energy   :         -459.54641092 Eh          -12504.89358 eV
Kinetic Energy     :          228.76976252 Eh            6225.14172 eV
Virial Ratio       :            2.00877251


DFT components:
N(Alpha)           :       20.999998795236 electrons
N(Beta)            :       20.999998795236 electrons
N(Total)           :       41.999997590473 electrons
E(XC)              :      -22.776749714521 Eh       

---------------
SCF CONVERGENCE
---------------

  Last Energy change         ...   -6.5724e-07  Tolerance :   1.0000e-06
  Last MAX-Density change    ...    3.3569e-05  Tolerance :   1.0000e-05
  Last RMS-Density change    ...    2.0919e-06  Tolerance :   1.0000e-06
  Last DIIS Error            ...    3.5680e-04  Tolerance :   1.0000e-06

             **** THE GBW FILE WAS UPDATED (Scan_22.gbw) ****
             **** DENSITY FILE WAS UPDATED (Scan_22.scfp.tmp) ****
             **** ENERGY FILE WAS UPDATED (Scan_22.en.tmp) ****
----------------
ORBITAL ENERGIES
----------------

  NO   OCC          E(Eh)            E(eV) 
   0   2.0000     -10.399223      -282.9773 
   1   2.0000     -10.399157      -282.9754 
   2   2.0000     -10.399084      -282.9735 
   3   2.0000     -10.398959      -282.9701 
   4   2.0000     -10.393722      -282.8275 
   5   2.0000     -10.393616      -282.8247 
   6   2.0000      -0.759448       -20.6656 
   7   2.0000      -0.748655       -20.3719 
   8   2.0000      -0.745479       -20.2855 
   9   2.0000      -0.725166       -19.7328 
  10   2.0000      -0.722009       -19.6469 
  11   2.0000      -0.712244       -19.3811 
  12   2.0000      -0.416571       -11.3355 
  13   2.0000      -0.415069       -11.2946 
  14   2.0000      -0.412885       -11.2352 
  15   2.0000      -0.407945       -11.1007 
  16   2.0000      -0.405270       -11.0279 
  17   2.0000      -0.384215       -10.4550 
  18   2.0000      -0.321115        -8.7380 
  19   2.0000      -0.250508        -6.8167 
  20   2.0000      -0.249686        -6.7943 
  21   0.0000      -0.081637        -2.2215 
  22   0.0000      -0.079010        -2.1500 
  23   0.0000      -0.065763        -1.7895 
  24   0.0000       0.009731         0.2648 
  25   0.0000       0.010354         0.2818 
  26   0.0000       0.012802         0.3484 
  27   0.0000       0.013481         0.3668 
  28   0.0000       0.027260         0.7418 
  29   0.0000       0.048671         1.3244 
  30   0.0000       0.204909         5.5759 
  31   0.0000       0.226486         6.1630 
  32   0.0000       0.228282         6.2119 
  33   0.0000       0.244625         6.6566 
  34   0.0000       0.246227         6.7002 
  35   0.0000       0.248458         6.7609 
  36   0.0000       0.557106        15.1596 
  37   0.0000       0.602504        16.3950 
  38   0.0000       0.606797        16.5118 
  39   0.0000       0.609762        16.5925 
  40   0.0000       0.632627        17.2147 
  41   0.0000       0.634268        17.2593 
  42   0.0000       0.654964        17.8225 
  43   0.0000       0.655947        17.8492 
  44   0.0000       0.680814        18.5259 
  45   0.0000       0.695929        18.9372 
  46   0.0000       0.697180        18.9712 
  47   0.0000       0.707840        19.2613 
  48   0.0000       0.711920        19.3723 
  49   0.0000       0.754224        20.5235 
  50   0.0000       0.754406        20.5284 
  51   0.0000       0.756653        20.5896 
  52   0.0000       0.758937        20.6517 
  53   0.0000       0.837328        22.7848 
  54   0.0000       0.852705        23.2033 
  55   0.0000       0.892686        24.2912 
  56   0.0000       0.893669        24.3180 
  57   0.0000       0.967047        26.3147 
  58   0.0000       0.986008        26.8306 
  59   0.0000       0.986229        26.8366 
  60   0.0000       0.987435        26.8695 
  61   0.0000       0.989013        26.9124 
  62   0.0000       0.991208        26.9721 
  63   0.0000       1.073603        29.2142 
  64   0.0000       1.074083        29.2273 
  65   0.0000       1.310711        35.6663 
  66   0.0000       1.752864        47.6979 
  67   0.0000       1.753445        47.7137 
  68   0.0000       1.756057        47.7847 
  69   0.0000       1.756814        47.8053 
  70   0.0000       1.758373        47.8478 
  71   0.0000       1.765574        48.0437 
  72   0.0000       1.772767        48.2394 
  73   0.0000       1.773102        48.2486 
  74   0.0000       1.775056        48.3017 
  75   0.0000       1.778458        48.3943 
  76   0.0000       1.780174        48.4410 
  77   0.0000       1.783538        48.5325 
  78   0.0000       1.784105        48.5480 
  79   0.0000       1.787310        48.6352 
  80   0.0000       1.793876        48.8138 
  81   0.0000       1.794472        48.8301 
  82   0.0000       1.801352        49.0173 
  83   0.0000       1.801851        49.0309 
  84   0.0000       1.842225        50.1295 
  85   0.0000       1.896416        51.6041 
  86   0.0000       1.897258        51.6270 
  87   0.0000       1.924830        52.3773 
  88   0.0000       1.928034        52.4645 
  89   0.0000       1.932232        52.5787 
  90   0.0000       2.200195        59.8704 
  91   0.0000       2.211275        60.1718 
  92   0.0000       2.215049        60.2745 
  93   0.0000       2.238741        60.9192 
  94   0.0000       2.242691        61.0267 
  95   0.0000       2.256499        61.4024 

                    ********************************
                    * MULLIKEN POPULATION ANALYSIS *
                    ********************************

-----------------------
MULLIKEN ATOMIC CHARGES
-----------------------
   0 C :   -0.166341
   1 H :    0.172210
   2 C :   -0.167334
   3 H :    0.172025
   4 C :   -0.175023
   5 H :    0.164478
   6 C :   -0.166691
   7 H :    0.171909
   8 C :   -0.166457
   9 H :    0.171984
  10 C :   -0.175440
  11 H :    0.164680
Sum of atomic charges:   -0.0000000

--------------------------------
MULLIKEN REDUCED ORBITAL CHARGES
--------------------------------
  0 C s       :     3.866658  s :     3.866658
      pz      :     1.196917  p :     2.284811
      px      :     0.143546
      py      :     0.944348
      dz2     :     0.013533  d :     0.014872
      dxz     :     0.000438
      dyz     :    -0.000033
      dx2y2   :     0.000371
      dxy     :     0.000563
  1 H s       :     0.827790  s :     0.827790
  2 C s       :     3.866210  s :     3.866210
      pz      :     1.196267  p :     2.286241
      px      :     0.843475
      py      :     0.246499
      dz2     :     0.013509  d :     0.014883
      dxz     :     0.000161
      dyz     :     0.000270
      dx2y2   :     0.000555
      dxy     :     0.000388
  3 H s       :     0.827975  s :     0.827975
  4 C s       :     3.873141  s :     3.873141
      pz      :     1.180381  p :     2.286796
      px      :     0.774533
      py      :     0.331882
      dz2     :     0.013509  d :     0.015087
      dxz     :     0.000054
      dyz     :     0.000505
      dx2y2   :     0.000563
      dxy     :     0.000456
  5 H s       :     0.835522  s :     0.835522
  6 C s       :     3.866419  s :     3.866419
      pz      :     1.194585  p :     2.285410
      px      :     0.144436
      py      :     0.946389
      dz2     :     0.013461  d :     0.014862
      dxz     :     0.000503
      dyz     :    -0.000038
      dx2y2   :     0.000369
      dxy     :     0.000568
  7 H s       :     0.828091  s :     0.828091
  8 C s       :     3.866701  s :     3.866701
      pz      :     1.195283  p :     2.284862
      px      :     0.839032
      py      :     0.250546
      dz2     :     0.013486  d :     0.014895
      dxz     :     0.000160
      dyz     :     0.000302
      dx2y2   :     0.000560
      dxy     :     0.000387
  9 H s       :     0.828016  s :     0.828016
 10 C s       :     3.872726  s :     3.872726
      pz      :     1.182216  p :     2.287636
      px      :     0.778452
      py      :     0.326968
      dz2     :     0.013553  d :     0.015077
      dxz     :     0.000055
      dyz     :     0.000455
      dx2y2   :     0.000558
      dxy     :     0.000456
 11 H s       :     0.835320  s :     0.835320


                     *******************************
                     * LOEWDIN POPULATION ANALYSIS *
                     *******************************

----------------------
LOEWDIN ATOMIC CHARGES
----------------------
   0 C :   -0.109985
   1 H :    0.120088
   2 C :   -0.111034
   3 H :    0.119976
   4 C :   -0.135181
   5 H :    0.116097
   6 C :   -0.110359
   7 H :    0.119916
   8 C :   -0.110474
   9 H :    0.119971
  10 C :   -0.135209
  11 H :    0.116195

-------------------------------
LOEWDIN REDUCED ORBITAL CHARGES
-------------------------------
  0 C s       :     3.680814  s :     3.680814
      pz      :     1.294107  p :     2.408546
      px      :     0.155506
      py      :     0.958934
      dz2     :     0.018617  d :     0.020625
      dxz     :     0.000604
      dyz     :     0.000091
      dx2y2   :     0.000565
      dxy     :     0.000748
  1 H s       :     0.879912  s :     0.879912
  2 C s       :     3.680522  s :     3.680522
      pz      :     1.293305  p :     2.409880
      px      :     0.854908
      py      :     0.261667
      dz2     :     0.018583  d :     0.020633
      dxz     :     0.000314
      dyz     :     0.000417
      dx2y2   :     0.000738
      dxy     :     0.000582
  3 H s       :     0.880024  s :     0.880024
  4 C s       :     3.690145  s :     3.690145
      pz      :     1.281401  p :     2.424066
      px      :     0.793895
      py      :     0.348769
      dz2     :     0.018661  d :     0.020971
      dxz     :     0.000203
      dyz     :     0.000693
      dx2y2   :     0.000764
      dxy     :     0.000650
  5 H s       :     0.883903  s :     0.883903
  6 C s       :     3.680503  s :     3.680503
      pz      :     1.291817  p :     2.409238
      px      :     0.156507
      py      :     0.960914
      dz2     :     0.018521  d :     0.020618
      dxz     :     0.000695
      dyz     :     0.000090
      dx2y2   :     0.000562
      dxy     :     0.000750
  7 H s       :     0.880084  s :     0.880084
  8 C s       :     3.680998  s :     3.680998
      pz      :     1.292377  p :     2.408830
      px      :     0.850651
      py      :     0.265802
      dz2     :     0.018548  d :     0.020647
      dxz     :     0.000313
      dyz     :     0.000463
      dx2y2   :     0.000742
      dxy     :     0.000581
  9 H s       :     0.880029  s :     0.880029
 10 C s       :     3.689742  s :     3.689742
      pz      :     1.283182  p :     2.424510
      px      :     0.797629
      py      :     0.343700
      dz2     :     0.018719  d :     0.020957
      dxz     :     0.000203
      dyz     :     0.000624
      dx2y2   :     0.000759
      dxy     :     0.000651
 11 H s       :     0.883805  s :     0.883805


                      *****************************
                      * MAYER POPULATION ANALYSIS *
                      *****************************

  NA   - Mulliken gross atomic population
  ZA   - Total nuclear charge
  QA   - Mulliken gross atomic charge
  VA   - Mayer's total valence
  BVA  - Mayer's bonded valence
  FA   - Mayer's free valence

  ATOM       NA         ZA         QA         VA         BVA        FA
  0 C      6.1663     6.0000    -0.1663     2.2208     2.2208    -0.0000
  1 H      0.8278     1.0000     0.1722     0.9097     0.9097    -0.0000
  2 C      6.1673     6.0000    -0.1673     2.2219     2.2219    -0.0000
  3 H      0.8280     1.0000     0.1720     0.9098     0.9098     0.0000
  4 C      6.1750     6.0000    -0.1750     2.3577     2.3577     0.0000
  5 H      0.8355     1.0000     0.1645     0.9110     0.9110     0.0000
  6 C      6.1667     6.0000    -0.1667     2.2210     2.2210    -0.0000
  7 H      0.8281     1.0000     0.1719     0.9097     0.9097     0.0000
  8 C      6.1665     6.0000    -0.1665     2.2240     2.2240    -0.0000
  9 H      0.8280     1.0000     0.1720     0.9098     0.9098    -0.0000
 10 C      6.1754     6.0000    -0.1754     2.3556     2.3556    -0.0000
 11 H      0.8353     1.0000     0.1647     0.9110     0.9110    -0.0000

  Mayer bond orders larger than 0.1
B(  0-C ,  1-H ) :   0.8993 B(  0-C ,  2-C ) :   0.5135 B(  0-C , 10-C ) :   0.6024 
B(  2-C ,  3-H ) :   0.8995 B(  2-C ,  4-C ) :   0.6037 B(  4-C ,  5-H ) :   0.9010 
B(  4-C ,  6-C ) :   0.6035 B(  6-C ,  7-H ) :   0.8993 B(  6-C ,  8-C ) :   0.5139 
B(  8-C ,  9-H ) :   0.8994 B(  8-C , 10-C ) :   0.6041 B( 10-C , 11-H ) :   0.9010 


-------
TIMINGS
-------

Total SCF time: 0 days 0 hours 4 min 9 sec 

Total time                  ....     249.745 sec
Sum of individual times     ....     248.135 sec  ( 99.4%)

Fock matrix formation       ....     246.604 sec  ( 98.7%)
  XC integration            ....      26.963 sec  ( 10.9% of F)
    Basis function eval.    ....      12.972 sec  ( 48.1% of XC)
    Density eval.           ....       1.772 sec  (  6.6% of XC)
    XC-Functional eval.     ....       6.082 sec  ( 22.6% of XC)
    XC-Potential eval.      ....       2.012 sec  (  7.5% of XC)
Diagonalization             ....       0.133 sec  (  0.1%)
Density matrix formation    ....       0.015 sec  (  0.0%)
Population analysis         ....       0.014 sec  (  0.0%)
Initial guess               ....       0.312 sec  (  0.1%)
Orbital Transformation      ....       0.000 sec  (  0.0%)
Orbital Orthonormalization  ....       0.000 sec  (  0.0%)
DIIS solution               ....       0.000 sec  (  0.0%)
Grid generation             ....       1.057 sec  (  0.4%)


-------------------------------------------------------------------------------
                          DFT DISPERSION CORRECTION                            
                                                                               
                              DFTD3 V3.1  Rev 1                                
                              USING zero damping                               
-------------------------------------------------------------------------------
The omegaB97X-D3 functional is recognized. Fit by Chai et al.
Active option DFTDOPT                   ...         3   

molecular C6(AA) [au] = 2484.641980 


            DFT-D V3
 parameters
 s6 scaling factor         :     1.0000 
 rs6 scaling factor        :     1.2810 
 s8 scaling factor         :     1.0000 
 rs8 scaling factor        :     1.0940 
 Damping factor alpha6     :    14.0000 
 Damping factor alpha8     :    16.0000 
 ad hoc parameters k1-k3   :    16.0000     1.3333    -4.0000 

 Edisp/kcal,au: -2.267175507481  -0.003612973763 
 E6   /kcal   :  -1.069806306 
 E8   /kcal   :  -1.197369201 
 % E8         :  52.813255843 

-------------------------   ----------------
Dispersion correction           -0.003612974
-------------------------   ----------------


-------------------------   --------------------
FINAL SINGLE POINT ENERGY      -230.780261368572
-------------------------   --------------------


                            ***************************************
                            *     ORCA property calculations      *
                            ***************************************

                                    ---------------------
                                    Active property flags
                                    ---------------------
   (+) Dipole Moment


------------------------------------------------------------------------------
                       ORCA ELECTRIC PROPERTIES CALCULATION
------------------------------------------------------------------------------

Dipole Moment Calculation                       ... on
Quadrupole Moment Calculation                   ... off
Polarizability Calculation                      ... off
GBWName                                         ... Scan_22.gbw
Electron density file                           ... Scan_22.scfp.tmp

-------------
DIPOLE MOMENT
-------------
                                X             Y             Z
Electronic contribution:     -0.00203      -0.00197      -0.00093
Nuclear contribution   :      0.00752      -0.00124       0.00012
                        -----------------------------------------
Total Dipole Moment    :      0.00549      -0.00321      -0.00081
                        -----------------------------------------
Magnitude (a.u.)       :      0.00641
Magnitude (Debye)      :      0.01628


Timings for individual modules:

Sum of individual times         ...      250.085 sec (=   4.168 min)
GTO integral calculation        ...        0.316 sec (=   0.005 min)   0.1 %
SCF iterations                  ...      249.769 sec (=   4.163 min)  99.9 %
                             ****ORCA TERMINATED NORMALLY****
TOTAL RUN TIME: 0 days 0 hours 4 minutes 10 seconds 412 msec
