
                                 *****************
                                 * O   R   C   A *
                                 *****************

           --- An Ab Initio, DFT and Semiempirical electronic structure package ---

                  #######################################################
                  #                        -***-                        #
                  #  Department of molecular theory and spectroscopy    #
                  #              Directorship: Frank Neese              #
                  # Max Planck Institute for Chemical Energy Conversion #
                  #                  D-45470 Muelheim/Ruhr              #
                  #                       Germany                       #
                  #                                                     #
                  #                  All rights reserved                #
                  #                        -***-                        #
                  #######################################################


                         Program Version 4.0.0.2 - RELEASE -


 With contributions from (in alphabetic order):
   Daniel Aravena         : Magnetic Properties
   Michael Atanasov       : Ab Initio Ligand Field Theory
   Ute Becker             : Parallelization
   Martin Brehm           : Molecular dynamics
   Dmytro Bykov           : SCF Hessian
   Vijay G. Chilkuri      : MRCI spin determinant printing
   Dipayan Datta          : RHF DLPNO-CCSD density
   Achintya Kumar Dutta   : EOM-CC, STEOM-CC
   Dmitry Ganyushin       : Spin-Orbit,Spin-Spin,Magnetic field MRCI
   Yang Guo               : DLPNO-NEVPT2, CIM, IAO-localization
   Andreas Hansen         : Spin unrestricted coupled pair/coupled cluster methods
   Lee Huntington         : MR-EOM, pCC
   Robert Izsak           : Overlap fitted RIJCOSX, COSX-SCS-MP3, EOM
   Christian Kollmar      : KDIIS, OOCD, Brueckner-CCSD(T), CCSD density
   Simone Kossmann        : Meta GGA functionals, TD-DFT gradient, OOMP2, MP2 Hessian
   Martin Krupicka        : AUTO-CI
   Dagmar Lenk            : GEPOL surface
   Dimitrios Liakos       : Extrapolation schemes; parallel MDCI
   Dimitrios Manganas     : ROCIS; embedding schemes
   Dimitrios Pantazis     : SARC Basis sets
   Taras Petrenko         : DFT Hessian,TD-DFT gradient, ASA, ECA, R-Raman, ABS, FL, XAS/XES, NRVS
   Peter Pinski           : DLPNO-MP2
   Christoph Reimann      : Effective Core Potentials
   Marius Retegan         : Local ZFS, SOC
   Christoph Riplinger    : Optimizer, TS searches, QM/MM, DLPNO-CCSD(T), (RO)-DLPNO pert. Triples
   Tobias Risthaus        : Range-separated hybrids, TD-DFT gradient, RPA, STAB
   Michael Roemelt        : Restricted open shell CIS
   Masaaki Saitow         : Open-shell DLPNO
   Barbara Sandhoefer     : DKH picture change effects
   Kantharuban Sivalingam : CASSCF convergence, NEVPT2, FIC-MRCI
   Georgi Stoychev        : AutoAux
   Boris Wezisla          : Elementary symmetry handling
   Frank Wennmohs         : Technical directorship


 We gratefully acknowledge several colleagues who have allowed us to
 interface, adapt or use parts of their codes:
   Stefan Grimme, W. Hujo, H. Kruse,             : VdW corrections, initial TS optimization,
                  C. Bannwarth                     DFT functionals, gCP, sTDA/sTD-DF
   Ed Valeev                                     : LibInt (2-el integral package), F12 methods
   Garnet Chan, S. Sharma, J. Yang, R. Olivares  : DMRG
   Ulf Ekstrom                                   : XCFun DFT Library
   Mihaly Kallay                                 : mrcc  (arbitrary order and MRCC methods)
   Jiri Pittner, Ondrej Demel                    : Mk-CCSD
   Frank Weinhold                                : gennbo (NPA and NBO analysis)
   Christopher J. Cramer and Donald G. Truhlar   : smd solvation model


 Your calculation uses the libint2 library for the computation of 2-el integrals
 For citations please refer to: http://libint.valeyev.net

 This ORCA versions uses:
   CBLAS   interface :  Fast vector & matrix operations
   LAPACKE interface :  Fast linear algebra routines
   SCALAPACK package :  Parallel linear algebra routines


Your calculation utilizes the atom-pairwise dispersion correction
with the zero-damping scheme (D30)
Cite in your paper:
S.Grimme, J.Antony, S.Ehrlich and H.Krieg, J.Chem.Phys., 132, (2010), 154104 
   

XCFun DFT library Copyright 2009-2010 Ulf Ekstrom and contributors.
See http://admol.org/xcfun for more information. This is free soft-
ware; see the source code for copying conditions. There is ABSOLUTELY
NO WARRANTY; not even for MERCHANTABILITY or FITNESS FOR A PARTICULAR
PURPOSE. For details see the documentation. Scientific users of this 
library should cite U. Ekstrom, L. Visscher, R. Bast, A. J. Thorvald-
sen and K. Ruud; J.Chem.Theor.Comp. 2010, DOI: 10.1021/ct100117s
XCFun Version 0.99 
Your calculation utilizes the basis: 6-31G(d)
   H-He, Li-Ne : W. J. Hehre, R. Ditchfield and J.A. Pople, J. Chem. Phys. 56, 2257 (1972).
                 Note: He and Ne are unpublished basis sets taken from the Gaussian program.
                 Note: Li and B from J. D. Dill and J. A. Pople, J. Chem. Phys. 62, 2921 (1975).
   Na - Ar     : M. M. Francl, W. J. Pietro, W. J. Hehre, J. S. Binkley, M. S. Gordon, 
                 D. J. DeFrees and J. A. Pople, J. Chem. Phys. 77, 3654 (1982).
   K - Zn      : V. A. Rassolov, J. A. Pople, M. A. Ratner, and T. L. Windus, J. Chem. Phys. 109, 1223 (1998).

================================================================================
                                        WARNINGS
                       Please study these warnings very carefully!
================================================================================

Warning: TCutStore was < 0. Adjusted to Thresh (uncritical)

INFO   : the flag for use of LIBINT has been found!

================================================================================
                                       INPUT FILE
================================================================================
NAME = initial23.inp
|  1> ! WB97X-D3 6-31G(d) VerySlowConv
|  2> ! KDIIS NOSOSCF
|  3> %base "Scan_23"
|  4> 
|  5> %scf
|  6> maxiter 999
|  7> end
|  8> 
|  9> * xyz 0 1
| 10> C          2.808162904660   -2.947983502479   -0.226858154159
| 11> H          2.771668078180   -2.945141259819   -1.334643822492
| 12> C          1.645520287140   -0.526346219231    0.229611249882
| 13> H          1.622172021928   -0.555797352997    1.337338081132
| 14> C         -1.031893353497   -0.322392446035   -0.233198829035
| 15> H         -1.016149501817   -0.360336879897   -1.340778445854
| 16> C         -2.547982496368   -2.537896375407    0.232785124405
| 17> H         -2.503274153414   -2.541010742407    1.340218824075
| 18> C         -1.387088555721   -4.958800064784   -0.231582448607
| 19> H         -1.365621049368   -4.923408247953   -1.339154124184
| 20> C          1.290518217350   -5.164540940610    0.229258300369
| 21> H          1.272577600929   -5.132455968381    1.337004244467
| 22> **                         ****END OF INPUT****
================================================================================

                       ****************************
                       * Single Point Calculation *
                       ****************************

---------------------------------
CARTESIAN COORDINATES (ANGSTROEM)
---------------------------------
  C      2.808163   -2.947984   -0.226858
  H      2.771668   -2.945141   -1.334644
  C      1.645520   -0.526346    0.229611
  H      1.622172   -0.555797    1.337338
  C     -1.031893   -0.322392   -0.233199
  H     -1.016150   -0.360337   -1.340778
  C     -2.547982   -2.537896    0.232785
  H     -2.503274   -2.541011    1.340219
  C     -1.387089   -4.958800   -0.231582
  H     -1.365621   -4.923408   -1.339154
  C      1.290518   -5.164541    0.229258
  H      1.272578   -5.132456    1.337004

----------------------------
CARTESIAN COORDINATES (A.U.)
----------------------------
  NO LB      ZA    FRAG     MASS         X           Y           Z
   0 C     6.0000    0    12.011    5.306659   -5.570881   -0.428700
   1 H     1.0000    0     1.008    5.237694   -5.565510   -2.522111
   2 C     6.0000    0    12.011    3.109583   -0.994650    0.433902
   3 H     1.0000    0     1.008    3.065461   -1.050305    2.527203
   4 C     6.0000    0    12.011   -1.949996   -0.609233   -0.440682
   5 H     1.0000    0     1.008   -1.920244   -0.680938   -2.533704
   6 C     6.0000    0    12.011   -4.814989   -4.795929    0.439900
   7 H     1.0000    0     1.008   -4.730503   -4.801814    2.532647
   8 C     6.0000    0    12.011   -2.621217   -9.370774   -0.437627
   9 H     1.0000    0     1.008   -2.580650   -9.303893   -2.530635
  10 C     6.0000    0    12.011    2.438726   -9.759568    0.433235
  11 H     1.0000    0     1.008    2.404823   -9.698936    2.526572

--------------------------------
INTERNAL COORDINATES (ANGSTROEM)
--------------------------------
 C      0   0   0     0.000000000000     0.00000000     0.00000000
 H      1   0   0     1.108390291218     0.00000000     0.00000000
 C      1   2   0     2.724780597501    98.69100012     0.00000000
 H      3   1   2     1.108364219668    98.78933310   176.57564315
 C      3   1   2     2.724763129855   117.21604564    72.01615281
 H      5   3   1     1.108341218452    98.81334451   288.16529742
 C      5   3   1     2.724724755835   117.18330125    32.72381849
 H      7   5   3     1.108340170875    98.66868775    71.54238197
 C      7   5   3     2.724717720707   117.14423523   327.10219956
 H      9   7   5     1.108344915208    98.63791539   288.29478017
 C      9   7   5     2.724753481528   117.19060898    32.85099870
 H     11   9   7     1.108355713580    98.68173408    71.98578860

---------------------------
INTERNAL COORDINATES (A.U.)
---------------------------
 C      0   0   0     0.000000000000     0.00000000     0.00000000
 H      1   0   0     2.094554099900     0.00000000     0.00000000
 C      1   2   0     5.149089104299    98.69100012     0.00000000
 H      3   1   2     2.094504831809    98.78933310   176.57564315
 C      3   1   2     5.149056095232   117.21604564    72.01615281
 H      5   3   1     2.094461365811    98.81334451   288.16529742
 C      5   3   1     5.148983578843   117.18330125    32.72381849
 H      7   5   3     2.094459386178    98.66868775    71.54238197
 C      7   5   3     5.148970284379   117.14423523   327.10219956
 H      9   7   5     2.094468351668    98.63791539   288.29478017
 C      9   7   5     5.149037862536   117.19060898    32.85099870
 H     11   9   7     2.094488757634    98.68173408    71.98578860

---------------------
BASIS SET INFORMATION
---------------------
There are 2 groups of distinct atoms

 Group   1 Type C   : 10s4p1d contracted to 3s2p1d pattern {631/31/1}
 Group   2 Type H   : 4s contracted to 2s pattern {31}

Atom   0C    basis set group =>   1
Atom   1H    basis set group =>   2
Atom   2C    basis set group =>   1
Atom   3H    basis set group =>   2
Atom   4C    basis set group =>   1
Atom   5H    basis set group =>   2
Atom   6C    basis set group =>   1
Atom   7H    basis set group =>   2
Atom   8C    basis set group =>   1
Atom   9H    basis set group =>   2
Atom  10C    basis set group =>   1
Atom  11H    basis set group =>   2
------------------------------------------------------------------------------
                           ORCA GTO INTEGRAL CALCULATION
------------------------------------------------------------------------------

                         BASIS SET STATISTICS AND STARTUP INFO

 # of primitive gaussian shells          ...  114
 # of primitive gaussian functions       ...  186
 # of contracted shells                  ...   48
 # of contracted basis functions         ...   96
 Highest angular momentum                ...    2
 Maximum contraction depth               ...    6
 Integral package used                   ... LIBINT
 Integral threshhold            Thresh   ...  1.000e-10
 Primitive cut-off              TCut     ...  1.000e-11


------------------------------ INTEGRAL EVALUATION ----------------------------


 * One electron integrals 
 Pre-screening matrix                    ... done
 Shell pair data                         ... done (   0.001 sec)

-------------------------------------------------------------------------------
                                 ORCA SCF
-------------------------------------------------------------------------------

------------
SCF SETTINGS
------------
Hamiltonian:
 Density Functional     Method          .... DFT(GTOs)
 Exchange Functional    Exchange        .... WB97X-D3
 Correlation Functional Correlation     .... WB97X-D3
 Gradients option       PostSCFGGA      .... off
 Hybrid DFT is turned on
   Fraction HF Exchange ScalHFX         ....  0.195728
   Scaling of DF-GGA-X  ScalDFX         ....  0.000000
   Scaling of DF-GGA-C  ScalDFC         ....  1.000000
   Scaling of DF-LDA-C  ScalLDAC        ....  1.000000
   Perturbative correction              ....  0.000000
 Long-range corrected/Screened/Range-Separated Hybrid DFT is turned on
   Amount of maximum screened exact exchange              ....  0.804272
   Range separation parameter mu (erf(mu*r12)/r12)        ....  0.250000


General Settings:
 Integral files         IntName         .... Scan_23
 Hartree-Fock type      HFTyp           .... RHF
 Total Charge           Charge          ....    0
 Multiplicity           Mult            ....    1
 Number of Electrons    NEL             ....   42
 Basis Dimension        Dim             ....   96
 Nuclear Repulsion      ENuc            ....    119.8879594287 Eh

Convergence Acceleration:
 DIIS                   CNVDIIS         .... on
   Start iteration      DIISMaxIt       ....     0
   Startup error        DIISStart       ....  0.200000
   # of expansion vecs  DIISMaxEq       ....     5
   Bias factor          DIISBfac        ....   1.050
   Max. coefficient     DIISMaxC        ....  10.000
 Newton-Raphson         CNVNR           .... off
 SOSCF                  CNVSOSCF        .... off
 Level Shifting         CNVShift        .... off
 Zerner damping         CNVZerner       .... off
 Static damping         CNVDamp         .... off
 Fernandez-Rico         CNVRico         .... off

SCF Procedure:
 Maximum # iterations   MaxIter         ....   999
 SCF integral mode      SCFMode         .... Direct
   Integral package                     .... LIBINT
 Reset frequeny         DirectResetFreq ....    20
 Integral Threshold     Thresh          ....  1.000e-10 Eh
 Primitive CutOff       TCut            ....  1.000e-11 Eh

Convergence Tolerance:
 Convergence Check Mode ConvCheckMode   .... All-Criteria
 Convergence forced     ConvForced      .... 0
 Energy Change          TolE            ....  1.000e-06 Eh
 Max Density Change     TolMaxP         ....  1.000e-05
 RMS Density Change     TolRMSP         ....  1.000e-06
 DIIS Error             TolErr          ....  1.000e-06


Diagonalization of the overlap matrix:
Smallest eigenvalue                        ... 3.784e-02
Time for diagonalization                   ...    0.002 sec
Threshold for overlap eigenvalues          ... 1.000e-08
Number of eigenvalues below threshold      ... 0
Time for construction of square roots      ...    0.007 sec
Total time needed                          ...    0.009 sec

-------------------
DFT GRID GENERATION
-------------------

General Integration Accuracy     IntAcc      ...  4.340
Radial Grid Type                 RadialGrid  ... Gauss-Chebyshev
Angular Grid (max. acc.)         AngularGrid ... Lebedev-110
Angular grid pruning method      GridPruning ... 3 (G Style)
Weight generation scheme         WeightScheme... Becke
Basis function cutoff            BFCut       ...    1.0000e-10
Integration weight cutoff        WCut        ...    1.0000e-14
Grids for H and He will be reduced by one unit

# of grid points (after initial pruning)     ...  14700 (   0.0 sec)
# of grid points (after weights+screening)   ...  14045 (   0.0 sec)
nearest neighbour list constructed           ...    0.0 sec
Grid point re-assignment to atoms done       ...    0.0 sec
Grid point division into batches done        ...    0.0 sec
Reduced shell lists constructed in    0.2 sec

Total number of grid points                  ...    14045
Total number of batches                      ...      222
Average number of points per batch           ...       63
Average number of grid points per atom       ...     1170
Average number of shells per batch           ...    29.45 (61.35%)
Average number of basis functions per batch  ...    58.28 (60.71%)
Average number of large shells per batch     ...    19.48 (66.16%)
Average number of large basis fcns per batch ...    38.72 (66.44%)
Maximum spatial batch extension              ...  20.73, 25.60, 20.06 au
Average spatial batch extension              ...   4.94,  5.12,  4.42 au

Time for grid setup =    0.242 sec

------------------------------
INITIAL GUESS: MODEL POTENTIAL
------------------------------
Loading Hartree-Fock densities                     ... done
Calculating cut-offs                               ... done
Setting up the integral package                    ... done
Initializing the effective Hamiltonian             ... done
Starting the Coulomb interaction                   ... done (   0.1 sec)
Reading the grid                                   ... done
Mapping shells                                     ... done
Starting the XC term evaluation                    ... done (   0.1 sec)
  promolecular density results
     # of electrons  =     42.000486725
     EX              =    -31.574071429
     EC              =     -1.163253176
     EX+EC           =    -32.737324605
Transforming the Hamiltonian                       ... done (   0.0 sec)
Diagonalizing the Hamiltonian                      ... done (   0.0 sec)
Back transforming the eigenvectors                 ... done (   0.0 sec)
Now organizing SCF variables                       ... done
                      ------------------
                      INITIAL GUESS DONE (   0.6 sec)
                      ------------------
--------------
SCF ITERATIONS
--------------
ITER       Energy         Delta-E        Max-DP      RMS-DP      [F,P]   Gradient Norm
               ***  Starting incremental Fock matrix formation  ***
                             ****Resetting KDIIS****
                             ****Turning on KDIIS(Cayley)****
  0   -230.6708436228   0.000000000000 0.00746305  0.00035439  0.0329965   0.027509323
  1   -230.6768591916  -0.006015568772 0.00695234  0.00046990  0.0296808   0.023789711
  2   -230.6834354797  -0.006576288138 0.01461077  0.00102237  0.0241632   0.019510599
  3   -230.6939957109  -0.010560231211 0.02661775  0.00226427  0.0150480   0.012266848
  4   -230.7058764631  -0.011880752196 0.01491885  0.00119996  0.0084514   0.002867220
  5   -230.7090518940  -0.003175430918 0.01032760  0.00052625  0.0061276   0.002185806
  6   -230.7102699409  -0.001218046811 0.00819308  0.00046087  0.0055552   0.002151421
  7   -230.7113771609  -0.001107220046 0.00239297  0.00020510  0.0051597   0.001866392
  8   -230.7117417668  -0.000364605864 0.00053758  0.00004117  0.0052942   0.001888278
  9   -230.7117771015  -0.000035334710 0.00049184  0.00002906  0.0051515   0.001856794
 10   -230.7118399588  -0.000062857347 0.00278228  0.00022482  0.0051205   0.001852473
 11   -230.7123946248  -0.000554665949 0.00249518  0.00017628  0.0050834   0.001858960
 12   -230.7119485517   0.000446073090 0.01012453  0.00064160  0.0049203   0.001831746
 13   -230.7105350533   0.001413498388 0.01021567  0.00057190  0.0045887   0.001753506
 14   -230.7097451297   0.000789923553 0.01599626  0.00097303  0.0038478   0.001732024
 15   -230.7091406742   0.000604455522 0.01091045  0.00060991  0.0023028   0.001172036
 16   -230.7088938794   0.000246794826 0.00476680  0.00034560  0.0018704   0.000951296
 17   -230.7089060262  -0.000012146860 0.00475849  0.00027955  0.0014625   0.000793215
 18   -230.7088732373   0.000032788933 0.00241021  0.00015962  0.0014274   0.000747349
 19   -230.7088929909  -0.000019753577 0.00194440  0.00007730  0.0012005   0.000536537
               *** Restarting incremental Fock matrix formation ***
                             ****Resetting KDIIS****
 20   -230.7089034089  -0.000010418055 0.00029096  0.00000979  0.0009600   0.000447752
 21   -230.7089084728  -0.000005063834 0.00032191  0.00002009  0.0009902   0.000402332
 22   -230.7089186007  -0.000010127907 0.00125385  0.00008037  0.0010023   0.000381878
 23   -230.7089569667  -0.000038366022 0.00309783  0.00020740  0.0010300   0.000351532
 24   -230.7090505320  -0.000093565299 0.00254709  0.00014936  0.0011173   0.000322353
 25   -230.7089867664   0.000063765568 0.00083343  0.00003507  0.0010671   0.000347589
 26   -230.7089940295  -0.000007263016 0.00284894  0.00015802  0.0009368   0.000341787
 27   -230.7089599901   0.000034039401 0.00125265  0.00005887  0.0008202   0.000295434
 28   -230.7089482383   0.000011751721 0.00116663  0.00006843  0.0007105   0.000278510
 29   -230.7089687140  -0.000020475651 0.00055446  0.00002965  0.0006846   0.000282808
 30   -230.7089729456  -0.000004231584 0.00187503  0.00013681  0.0007076   0.000264405
 31   -230.7090215631  -0.000048617564 0.00059209  0.00004600  0.0007729   0.000261431
 32   -230.7090377123  -0.000016149190 0.00086221  0.00005778  0.0007771   0.000264272
 33   -230.7090581643  -0.000020452009 0.00069831  0.00005072  0.0007752   0.000256043
 34   -230.7090760812  -0.000017916916 0.00023258  0.00001369  0.0007836   0.000255227
 35   -230.7090809347  -0.000004853415 0.00019489  0.00001371  0.0007811   0.000255633
 36   -230.7090857118  -0.000004777143 0.00002530  0.00000148  0.0007807   0.000255481
                          ***Energy convergence achieved***
 37   -230.7090858181  -0.000000106320 0.00051243  0.00003428  0.0007829   0.000255503
 38   -230.7090978102  -0.000011992056 0.00043433  0.00002712  0.0007860   0.000255696
 39   -230.7091068984  -0.000009088189 0.00125396  0.00008535  0.0007768   0.000256003
               *** Restarting incremental Fock matrix formation ***
                             ****Resetting KDIIS****
 40   -230.7091364007  -0.000029502319 0.00009348  0.00000582  0.0007762   0.000255022
 41   -230.7091384759  -0.000002075159 0.00021936  0.00001452  0.0007744   0.000255023
 42   -230.7091436511  -0.000005175298 0.00037811  0.00002426  0.0007732   0.000255150
 43   -230.7091350469   0.000008604228 0.00078947  0.00005251  0.0007734   0.000254848
 44   -230.7091167164   0.000018330488 0.00352008  0.00026496  0.0007758   0.000254654
 45   -230.7092073768  -0.000090660340 0.00115736  0.00007418  0.0007803   0.000267414
 46   -230.7091825244   0.000024852395 0.00470542  0.00033380  0.0008132   0.000259432
 47   -230.7092964066  -0.000113882260 0.00703582  0.00050971  0.0007389   0.000263439
 48   -230.7094600303  -0.000163623642 0.00912690  0.00066792  0.0008041   0.000261417
 49   -230.7096570059  -0.000196975640 0.01048812  0.00075363  0.0007556   0.000269195
 50   -230.7098388762  -0.000181870317 0.00801764  0.00059695  0.0006251   0.000321982
 51   -230.7097038521   0.000135024165 0.00871970  0.00061621  0.0006550   0.000297072
 52   -230.7098537811  -0.000149929040 0.00381788  0.00026019  0.0005497   0.000190853
 53   -230.7099086267  -0.000054845575 0.00055236  0.00004668  0.0005234   0.000196880
 54   -230.7099024612   0.000006165482 0.00106287  0.00007600  0.0005298   0.000182641
 55   -230.7098862666   0.000016194573 0.00169943  0.00011650  0.0005077   0.000191142
 56   -230.7098623884   0.000023878230 0.00063194  0.00004081  0.0005592   0.000180711
 57   -230.7098705561  -0.000008167663 0.00118120  0.00007737  0.0005473   0.000183637
 58   -230.7098528710   0.000017685090 0.00100288  0.00005890  0.0005610   0.000177241
 59   -230.7098661060  -0.000013235003 0.00088018  0.00006502  0.0005137   0.000185870
               *** Restarting incremental Fock matrix formation ***
                             ****Resetting KDIIS****
 60   -230.7098766807  -0.000010574736 0.00006624  0.00000384  0.0005057   0.000174192
                          ***Energy convergence achieved***
 61   -230.7098776103  -0.000000929617 0.00015814  0.00000908  0.0005039   0.000171309
 62   -230.7098798238  -0.000002213441 0.00042159  0.00002429  0.0005035   0.000170072
 63   -230.7098740419   0.000005781849 0.00212037  0.00012086  0.0005047   0.000167771
 64   -230.7098473499   0.000026691982 0.00022875  0.00001391  0.0004883   0.000158028
 65   -230.7098490521  -0.000001702193 0.00028323  0.00001679  0.0004614   0.000159582
                          ***Energy convergence achieved***
 66   -230.7098499144  -0.000000862299 0.00089261  0.00007085  0.0004757   0.000154737
 67   -230.7098622405  -0.000012326021 0.00295538  0.00020824  0.0004131   0.000163694
 68   -230.7099023895  -0.000040149007 0.00057611  0.00002957  0.0003629   0.000151072
                          ***Energy convergence achieved***
 69   -230.7099017842   0.000000605280 0.00256620  0.00019551  0.0003625   0.000148810
 70   -230.7099363002  -0.000034516017 0.00223531  0.00018107  0.0003773   0.000129086
 71   -230.7099657952  -0.000029495048 0.00129982  0.00010676  0.0004366   0.000135057
 72   -230.7099822633  -0.000016468009 0.00109974  0.00009153  0.0004147   0.000121941
 73   -230.7099960035  -0.000013740217 0.00017256  0.00001224  0.0004603   0.000122013
 74   -230.7099973939  -0.000001390403 0.00061091  0.00004682  0.0004556   0.000117851
 75   -230.7099911420   0.000006251917 0.00009026  0.00000724  0.0004567   0.000121705
 76   -230.7099921680  -0.000001026059 0.00068033  0.00005696  0.0004580   0.000122389
 77   -230.7100002702  -0.000008102151 0.00041527  0.00003708  0.0004732   0.000124249
 78   -230.7100058765  -0.000005606303 0.00067944  0.00004470  0.0004801   0.000123391
 79   -230.7099990304   0.000006846092 0.00052837  0.00004180  0.0004090   0.000124436
               *** Restarting incremental Fock matrix formation ***
                             ****Resetting KDIIS****
 80   -230.7099930605   0.000005969838 0.00003332  0.00000290  0.0004505   0.000137862
                          ***Energy convergence achieved***
 81   -230.7099935415  -0.000000480982 0.00008228  0.00000664  0.0004451   0.000127598
 82   -230.7099946087  -0.000001067142 0.00008172  0.00000409  0.0004474   0.000122264
                          ***Energy convergence achieved***
 83   -230.7099941485   0.000000460170 0.00087683  0.00006838  0.0004424   0.000116491
 84   -230.7099844380   0.000009710480 0.00040291  0.00002221  0.0003449   0.000104916
                          ***Energy convergence achieved***
 85   -230.7099848362  -0.000000398181 0.00033885  0.00001586  0.0003227   0.000114901
 86   -230.7099832171   0.000001619057 0.00064179  0.00003643  0.0003032   0.000104353
 87   -230.7099852714  -0.000002054269 0.00083980  0.00006679  0.0002785   0.000101471
 88   -230.7099935115  -0.000008240103 0.00020017  0.00001146  0.0002594   0.000096682
                          ***Energy convergence achieved***
 89   -230.7099931008   0.000000410716 0.00087702  0.00006270  0.0002510   0.000099413
 90   -230.7100005262  -0.000007425385 0.00244592  0.00017197  0.0002637   0.000085714
 91   -230.7100194357  -0.000018909548 0.00061526  0.00004413  0.0002351   0.000093515
 92   -230.7100149898   0.000004445903 0.00242019  0.00017158  0.0002414   0.000088647
 93   -230.7100322214  -0.000017231583 0.00091030  0.00006382  0.0002303   0.000081540
 94   -230.7100382313  -0.000006009896 0.00006240  0.00000397  0.0002121   0.000077413
                          ***Energy convergence achieved***
 95   -230.7100380845   0.000000146785 0.00031883  0.00002317  0.0002089   0.000073926
 96   -230.7100364031   0.000001681405 0.00024158  0.00001727  0.0002137   0.000074967
 97   -230.7100377046  -0.000001301463 0.00034499  0.00002443  0.0002086   0.000074932
 98   -230.7100397220  -0.000002017388 0.00093409  0.00006611  0.0002052   0.000077215
 99   -230.7100451835  -0.000005461549 0.00008764  0.00000630  0.0002127   0.000082177
               *** Restarting incremental Fock matrix formation ***
                             ****Resetting KDIIS****
                          ***Energy convergence achieved***
100   -230.7100450032   0.000000180288 0.00002326  0.00000167  0.0002081   0.000076192

            ***Energy convergence in two consecutive cycles with***
                    ***'reasonable' density convergence***
                       *** signaling convergence ***

                    *** KDIIS BlockDiag ( 0.001 sec) ***

               *****************************************************
               *                     SUCCESS                       *
               *           SCF CONVERGED AFTER 101 CYCLES          *
               *****************************************************

Setting up the final grid:

General Integration Accuracy     IntAcc      ...  4.670
Radial Grid Type                 RadialGrid  ... Gauss-Chebyshev
Angular Grid (max. acc.)         AngularGrid ... Lebedev-302
Angular grid pruning method      GridPruning ... 3 (G Style)
Weight generation scheme         WeightScheme... Becke
Basis function cutoff            BFCut       ...    1.0000e-10
Integration weight cutoff        WCut        ...    1.0000e-14
Grids for H and He will be reduced by one unit

# of grid points (after initial pruning)     ...  57636 (   0.0 sec)
# of grid points (after weights+screening)   ...  54980 (   0.1 sec)
nearest neighbour list constructed           ...    0.0 sec
Grid point re-assignment to atoms done       ...    0.0 sec
Grid point division into batches done        ...    0.2 sec
Reduced shell lists constructed in    0.7 sec

Total number of grid points                  ...    54980
Total number of batches                      ...      864
Average number of points per batch           ...       63
Average number of grid points per atom       ...     4582
Average number of shells per batch           ...    25.99 (54.14%)
Average number of basis functions per batch  ...    51.23 (53.36%)
Average number of large shells per batch     ...    16.61 (63.90%)
Average number of large basis fcns per batch ...    32.89 (64.20%)
Maximum spatial batch extension              ...  19.76, 20.08, 17.49 au
Average spatial batch extension              ...   3.06,  3.07,  2.78 au

Final grid set up in    0.8 sec
Final integration                            ... done (   0.6 sec)
Change in XC energy                          ...    -0.000511254
Integrated number of electrons               ...    41.999992173
Previous integrated no of electrons          ...    42.005881929

----------------
TOTAL SCF ENERGY
----------------

Total Energy       :         -230.71055644 Eh           -6277.95341 eV

Components:
Nuclear Repulsion  :          119.88795943 Eh            3262.31723 eV
Electronic Energy  :         -350.59851587 Eh           -9540.27063 eV
One Electron Energy:         -545.49774566 Eh          -14843.74830 eV
Two Electron Energy:          194.89922979 Eh            5303.47767 eV

Virial components:
Potential Energy   :         -459.27851165 Eh          -12497.60367 eV
Kinetic Energy     :          228.56795521 Eh            6219.65026 eV
Virial Ratio       :            2.00937402


DFT components:
N(Alpha)           :       20.999996086655 electrons
N(Beta)            :       20.999996086655 electrons
N(Total)           :       41.999992173309 electrons
E(XC)              :      -22.714974495225 Eh       

---------------
SCF CONVERGENCE
---------------

  Last Energy change         ...   -1.8224e-07  Tolerance :   1.0000e-06
  Last MAX-Density change    ...    4.8081e-05  Tolerance :   1.0000e-05
  Last RMS-Density change    ...    3.4667e-06  Tolerance :   1.0000e-06
  Last DIIS Error            ...    2.0724e-04  Tolerance :   1.0000e-06

             **** THE GBW FILE WAS UPDATED (Scan_23.gbw) ****
             **** DENSITY FILE WAS UPDATED (Scan_23.scfp.tmp) ****
             **** ENERGY FILE WAS UPDATED (Scan_23.en.tmp) ****
----------------
ORBITAL ENERGIES
----------------

  NO   OCC          E(Eh)            E(eV) 
   0   2.0000     -10.430536      -283.8293 
   1   2.0000     -10.428800      -283.7821 
   2   2.0000     -10.404007      -283.1074 
   3   2.0000     -10.403628      -283.0971 
   4   2.0000     -10.401468      -283.0383 
   5   2.0000     -10.401378      -283.0359 
   6   2.0000      -0.767113       -20.8742 
   7   2.0000      -0.761340       -20.7171 
   8   2.0000      -0.744333       -20.2543 
   9   2.0000      -0.734829       -19.9957 
  10   2.0000      -0.722878       -19.6705 
  11   2.0000      -0.717205       -19.5161 
  12   2.0000      -0.427314       -11.6278 
  13   2.0000      -0.426173       -11.5968 
  14   2.0000      -0.410260       -11.1637 
  15   2.0000      -0.407899       -11.0995 
  16   2.0000      -0.405958       -11.0467 
  17   2.0000      -0.394236       -10.7277 
  18   2.0000      -0.300210        -8.1691 
  19   2.0000      -0.271593        -7.3904 
  20   2.0000      -0.239023        -6.5042 
  21   0.0000      -0.123607        -3.3635 
  22   0.0000      -0.093187        -2.5358 
  23   0.0000      -0.082228        -2.2375 
  24   0.0000      -0.014488        -0.3942 
  25   0.0000      -0.006737        -0.1833 
  26   0.0000      -0.003558        -0.0968 
  27   0.0000       0.007457         0.2029 
  28   0.0000       0.009253         0.2518 
  29   0.0000       0.040549         1.1034 
  30   0.0000       0.204385         5.5616 
  31   0.0000       0.215999         5.8776 
  32   0.0000       0.225026         6.1233 
  33   0.0000       0.239189         6.5087 
  34   0.0000       0.246637         6.7113 
  35   0.0000       0.249189         6.7808 
  36   0.0000       0.562062        15.2945 
  37   0.0000       0.595919        16.2158 
  38   0.0000       0.599417        16.3110 
  39   0.0000       0.609374        16.5819 
  40   0.0000       0.620090        16.8735 
  41   0.0000       0.627271        17.0689 
  42   0.0000       0.638571        17.3764 
  43   0.0000       0.639161        17.3925 
  44   0.0000       0.655382        17.8338 
  45   0.0000       0.662152        18.0181 
  46   0.0000       0.664855        18.0916 
  47   0.0000       0.674157        18.3447 
  48   0.0000       0.707024        19.2391 
  49   0.0000       0.716997        19.5105 
  50   0.0000       0.719810        19.5870 
  51   0.0000       0.726516        19.7695 
  52   0.0000       0.733980        19.9726 
  53   0.0000       0.818388        22.2695 
  54   0.0000       0.871668        23.7193 
  55   0.0000       0.902137        24.5484 
  56   0.0000       0.903342        24.5812 
  57   0.0000       0.961905        26.1748 
  58   0.0000       0.969712        26.3872 
  59   0.0000       0.974839        26.5267 
  60   0.0000       0.980003        26.6672 
  61   0.0000       0.983936        26.7743 
  62   0.0000       0.992828        27.0162 
  63   0.0000       1.059690        28.8356 
  64   0.0000       1.065928        29.0054 
  65   0.0000       1.266494        34.4630 
  66   0.0000       1.743453        47.4418 
  67   0.0000       1.744801        47.4785 
  68   0.0000       1.745311        47.4923 
  69   0.0000       1.746015        47.5115 
  70   0.0000       1.757167        47.8150 
  71   0.0000       1.757431        47.8221 
  72   0.0000       1.761926        47.9444 
  73   0.0000       1.762029        47.9473 
  74   0.0000       1.763761        47.9944 
  75   0.0000       1.766098        48.0580 
  76   0.0000       1.769865        48.1605 
  77   0.0000       1.772526        48.2329 
  78   0.0000       1.776429        48.3391 
  79   0.0000       1.778476        48.3948 
  80   0.0000       1.778831        48.4044 
  81   0.0000       1.786930        48.6248 
  82   0.0000       1.789407        48.6922 
  83   0.0000       1.791755        48.7561 
  84   0.0000       1.814245        49.3681 
  85   0.0000       1.849139        50.3176 
  86   0.0000       1.851828        50.3908 
  87   0.0000       1.873047        50.9682 
  88   0.0000       1.883917        51.2640 
  89   0.0000       1.885117        51.2967 
  90   0.0000       2.180996        59.3479 
  91   0.0000       2.187821        59.5336 
  92   0.0000       2.203183        59.9517 
  93   0.0000       2.225215        60.5512 
  94   0.0000       2.236664        60.8627 
  95   0.0000       2.256586        61.4048 

                    ********************************
                    * MULLIKEN POPULATION ANALYSIS *
                    ********************************

-----------------------
MULLIKEN ATOMIC CHARGES
-----------------------
   0 C :   -0.113143
   1 H :    0.194396
   2 C :   -0.212887
   3 H :    0.177802
   4 C :   -0.221231
   5 H :    0.176968
   6 C :   -0.116300
   7 H :    0.193412
   8 C :   -0.211310
   9 H :    0.177901
  10 C :   -0.222708
  11 H :    0.177101
Sum of atomic charges:   -0.0000000

--------------------------------
MULLIKEN REDUCED ORBITAL CHARGES
--------------------------------
  0 C s       :     3.898641  s :     3.898641
      pz      :     1.243845  p :     2.199436
      px      :     0.701424
      py      :     0.254166
      dz2     :     0.014113  d :     0.015067
      dxz     :     0.000343
      dyz     :     0.000036
      dx2y2   :     0.000259
      dxy     :     0.000316
  1 H s       :     0.805604  s :     0.805604
  2 C s       :     3.861095  s :     3.861095
      pz      :     1.206506  p :     2.337320
      px      :     0.915118
      py      :     0.215695
      dz2     :     0.013614  d :     0.014472
      dxz     :     0.000173
      dyz     :     0.000037
      dx2y2   :     0.000577
      dxy     :     0.000071
  3 H s       :     0.822198  s :     0.822198
  4 C s       :     3.856233  s :     3.856233
      pz      :     1.204457  p :     2.350654
      px      :     0.970402
      py      :     0.175795
      dz2     :     0.013540  d :     0.014344
      dxz     :     0.000142
      dyz     :     0.000049
      dx2y2   :     0.000511
      dxy     :     0.000101
  5 H s       :     0.823032  s :     0.823032
  6 C s       :     3.898575  s :     3.898575
      pz      :     1.241921  p :     2.202663
      px      :     0.713855
      py      :     0.246887
      dz2     :     0.014074  d :     0.015063
      dxz     :     0.000383
      dyz     :     0.000033
      dx2y2   :     0.000253
      dxy     :     0.000320
  7 H s       :     0.806588  s :     0.806588
  8 C s       :     3.861717  s :     3.861717
      pz      :     1.207187  p :     2.335107
      px      :     0.905815
      py      :     0.222106
      dz2     :     0.013622  d :     0.014486
      dxz     :     0.000167
      dyz     :     0.000047
      dx2y2   :     0.000580
      dxy     :     0.000071
  9 H s       :     0.822099  s :     0.822099
 10 C s       :     3.855616  s :     3.855616
      pz      :     1.204152  p :     2.352764
      px      :     0.975455
      py      :     0.173157
      dz2     :     0.013534  d :     0.014327
      dxz     :     0.000149
      dyz     :     0.000038
      dx2y2   :     0.000506
      dxy     :     0.000100
 11 H s       :     0.822899  s :     0.822899


                     *******************************
                     * LOEWDIN POPULATION ANALYSIS *
                     *******************************

----------------------
LOEWDIN ATOMIC CHARGES
----------------------
   0 C :   -0.057605
   1 H :    0.132962
   2 C :   -0.156011
   3 H :    0.122613
   4 C :   -0.161978
   5 H :    0.121979
   6 C :   -0.061368
   7 H :    0.132357
   8 C :   -0.154440
   9 H :    0.122673
  10 C :   -0.163217
  11 H :    0.122036

-------------------------------
LOEWDIN REDUCED ORBITAL CHARGES
-------------------------------
  0 C s       :     3.718054  s :     3.718054
      pz      :     1.336232  p :     2.319189
      px      :     0.705164
      py      :     0.277793
      dz2     :     0.019105  d :     0.020362
      dxz     :     0.000370
      dyz     :     0.000044
      dx2y2   :     0.000379
      dxy     :     0.000464
  1 H s       :     0.867038  s :     0.867038
  2 C s       :     3.681703  s :     3.681703
      pz      :     1.303017  p :     2.454412
      px      :     0.924848
      py      :     0.226547
      dz2     :     0.018763  d :     0.019897
      dxz     :     0.000225
      dyz     :     0.000060
      dx2y2   :     0.000717
      dxy     :     0.000131
  3 H s       :     0.877387  s :     0.877387
  4 C s       :     3.676546  s :     3.676546
      pz      :     1.300886  p :     2.465662
      px      :     0.979498
      py      :     0.185278
      dz2     :     0.018689  d :     0.019771
      dxz     :     0.000195
      dyz     :     0.000079
      dx2y2   :     0.000630
      dxy     :     0.000179
  5 H s       :     0.878021  s :     0.878021
  6 C s       :     3.718041  s :     3.718041
      pz      :     1.334551  p :     2.322960
      px      :     0.717734
      py      :     0.270675
      dz2     :     0.019066  d :     0.020368
      dxz     :     0.000419
      dyz     :     0.000042
      dx2y2   :     0.000373
      dxy     :     0.000467
  7 H s       :     0.867643  s :     0.867643
  8 C s       :     3.682254  s :     3.682254
      pz      :     1.303727  p :     2.452272
      px      :     0.915716
      py      :     0.232830
      dz2     :     0.018768  d :     0.019913
      dxz     :     0.000217
      dyz     :     0.000077
      dx2y2   :     0.000721
      dxy     :     0.000130
  9 H s       :     0.877327  s :     0.877327
 10 C s       :     3.675959  s :     3.675959
      pz      :     1.300464  p :     2.467509
      px      :     0.984401
      py      :     0.182643
      dz2     :     0.018685  d :     0.019750
      dxz     :     0.000202
      dyz     :     0.000062
      dx2y2   :     0.000623
      dxy     :     0.000178
 11 H s       :     0.877964  s :     0.877964


                      *****************************
                      * MAYER POPULATION ANALYSIS *
                      *****************************

  NA   - Mulliken gross atomic population
  ZA   - Total nuclear charge
  QA   - Mulliken gross atomic charge
  VA   - Mayer's total valence
  BVA  - Mayer's bonded valence
  FA   - Mayer's free valence

  ATOM       NA         ZA         QA         VA         BVA        FA
  0 C      6.1131     6.0000    -0.1131     2.3178     2.3178    -0.0000
  1 H      0.8056     1.0000     0.1944     0.9025     0.9025    -0.0000
  2 C      6.2129     6.0000    -0.2129     2.3839     2.3839     0.0000
  3 H      0.8222     1.0000     0.1778     0.9090     0.9090     0.0000
  4 C      6.2212     6.0000    -0.2212     2.3666     2.3666     0.0000
  5 H      0.8230     1.0000     0.1770     0.9094     0.9094     0.0000
  6 C      6.1163     6.0000    -0.1163     2.3126     2.3126    -0.0000
  7 H      0.8066     1.0000     0.1934     0.9028     0.9028     0.0000
  8 C      6.2113     6.0000    -0.2113     2.3878     2.3878    -0.0000
  9 H      0.8221     1.0000     0.1779     0.9089     0.9089    -0.0000
 10 C      6.2227     6.0000    -0.2227     2.3653     2.3653    -0.0000
 11 H      0.8229     1.0000     0.1771     0.9095     0.9095    -0.0000

  Mayer bond orders larger than 0.1
B(  0-C ,  1-H ) :   0.8979 B(  0-C ,  2-C ) :   0.2992 B(  0-C ,  4-C ) :   0.1451 
B(  0-C ,  6-C ) :   0.4684 B(  0-C ,  8-C ) :   0.1735 B(  0-C , 10-C ) :   0.3211 
B(  2-C ,  3-H ) :   0.8996 B(  2-C ,  4-C ) :   0.8992 B(  2-C ,  6-C ) :   0.1692 
B(  4-C ,  5-H ) :   0.8994 B(  4-C ,  6-C ) :   0.3200 B(  6-C ,  7-H ) :   0.8982 
B(  6-C ,  8-C ) :   0.3009 B(  6-C , 10-C ) :   0.1434 B(  8-C ,  9-H ) :   0.8996 
B(  8-C , 10-C ) :   0.8977 B( 10-C , 11-H ) :   0.8993 

-------
TIMINGS
-------

Total SCF time: 0 days 0 hours 2 min 52 sec 

Total time                  ....     172.796 sec
Sum of individual times     ....     171.646 sec  ( 99.3%)

Fock matrix formation       ....     170.116 sec  ( 98.4%)
  XC integration            ....      19.339 sec  ( 11.4% of F)
    Basis function eval.    ....       9.139 sec  ( 47.3% of XC)
    Density eval.           ....       1.261 sec  (  6.5% of XC)
    XC-Functional eval.     ....       4.477 sec  ( 23.2% of XC)
    XC-Potential eval.      ....       1.326 sec  (  6.9% of XC)
Diagonalization             ....       0.114 sec  (  0.1%)
Density matrix formation    ....       0.012 sec  (  0.0%)
Population analysis         ....       0.015 sec  (  0.0%)
Initial guess               ....       0.328 sec  (  0.2%)
Orbital Transformation      ....       0.000 sec  (  0.0%)
Orbital Orthonormalization  ....       0.000 sec  (  0.0%)
DIIS solution               ....       0.000 sec  (  0.0%)
Grid generation             ....       1.061 sec  (  0.6%)


-------------------------------------------------------------------------------
                          DFT DISPERSION CORRECTION                            
                                                                               
                              DFTD3 V3.1  Rev 1                                
                              USING zero damping                               
-------------------------------------------------------------------------------
The omegaB97X-D3 functional is recognized. Fit by Chai et al.
Active option DFTDOPT                   ...         3   

molecular C6(AA) [au] = 2487.483905 


            DFT-D V3
 parameters
 s6 scaling factor         :     1.0000 
 rs6 scaling factor        :     1.2810 
 s8 scaling factor         :     1.0000 
 rs8 scaling factor        :     1.0940 
 Damping factor alpha6     :    14.0000 
 Damping factor alpha8     :    16.0000 
 ad hoc parameters k1-k3   :    16.0000     1.3333    -4.0000 

 Edisp/kcal,au: -2.023208715680  -0.003224187974 
 E6   /kcal   :  -0.933078524 
 E8   /kcal   :  -1.090130192 
 % E8         :  53.881252249 

-------------------------   ----------------
Dispersion correction           -0.003224188
-------------------------   ----------------


-------------------------   --------------------
FINAL SINGLE POINT ENERGY      -230.713780627756
-------------------------   --------------------


                            ***************************************
                            *     ORCA property calculations      *
                            ***************************************

                                    ---------------------
                                    Active property flags
                                    ---------------------
   (+) Dipole Moment


------------------------------------------------------------------------------
                       ORCA ELECTRIC PROPERTIES CALCULATION
------------------------------------------------------------------------------

Dipole Moment Calculation                       ... on
Quadrupole Moment Calculation                   ... off
Polarizability Calculation                      ... off
GBWName                                         ... Scan_23.gbw
Electron density file                           ... Scan_23.scfp.tmp

-------------
DIPOLE MOMENT
-------------
                                X             Y             Z
Electronic contribution:      0.01461      -0.00339      -0.00397
Nuclear contribution   :      0.00358      -0.00017      -0.00003
                        -----------------------------------------
Total Dipole Moment    :      0.01819      -0.00355      -0.00400
                        -----------------------------------------
Magnitude (a.u.)       :      0.01896
Magnitude (Debye)      :      0.04820


Timings for individual modules:

Sum of individual times         ...      173.244 sec (=   2.887 min)
GTO integral calculation        ...        0.423 sec (=   0.007 min)   0.2 %
SCF iterations                  ...      172.821 sec (=   2.880 min)  99.8 %
                             ****ORCA TERMINATED NORMALLY****
TOTAL RUN TIME: 0 days 0 hours 2 minutes 53 seconds 629 msec
