
                                 *****************
                                 * O   R   C   A *
                                 *****************

           --- An Ab Initio, DFT and Semiempirical electronic structure package ---

                  #######################################################
                  #                        -***-                        #
                  #  Department of molecular theory and spectroscopy    #
                  #              Directorship: Frank Neese              #
                  # Max Planck Institute for Chemical Energy Conversion #
                  #                  D-45470 Muelheim/Ruhr              #
                  #                       Germany                       #
                  #                                                     #
                  #                  All rights reserved                #
                  #                        -***-                        #
                  #######################################################


                         Program Version 4.0.0.2 - RELEASE -


 With contributions from (in alphabetic order):
   Daniel Aravena         : Magnetic Properties
   Michael Atanasov       : Ab Initio Ligand Field Theory
   Ute Becker             : Parallelization
   Martin Brehm           : Molecular dynamics
   Dmytro Bykov           : SCF Hessian
   Vijay G. Chilkuri      : MRCI spin determinant printing
   Dipayan Datta          : RHF DLPNO-CCSD density
   Achintya Kumar Dutta   : EOM-CC, STEOM-CC
   Dmitry Ganyushin       : Spin-Orbit,Spin-Spin,Magnetic field MRCI
   Yang Guo               : DLPNO-NEVPT2, CIM, IAO-localization
   Andreas Hansen         : Spin unrestricted coupled pair/coupled cluster methods
   Lee Huntington         : MR-EOM, pCC
   Robert Izsak           : Overlap fitted RIJCOSX, COSX-SCS-MP3, EOM
   Christian Kollmar      : KDIIS, OOCD, Brueckner-CCSD(T), CCSD density
   Simone Kossmann        : Meta GGA functionals, TD-DFT gradient, OOMP2, MP2 Hessian
   Martin Krupicka        : AUTO-CI
   Dagmar Lenk            : GEPOL surface
   Dimitrios Liakos       : Extrapolation schemes; parallel MDCI
   Dimitrios Manganas     : ROCIS; embedding schemes
   Dimitrios Pantazis     : SARC Basis sets
   Taras Petrenko         : DFT Hessian,TD-DFT gradient, ASA, ECA, R-Raman, ABS, FL, XAS/XES, NRVS
   Peter Pinski           : DLPNO-MP2
   Christoph Reimann      : Effective Core Potentials
   Marius Retegan         : Local ZFS, SOC
   Christoph Riplinger    : Optimizer, TS searches, QM/MM, DLPNO-CCSD(T), (RO)-DLPNO pert. Triples
   Tobias Risthaus        : Range-separated hybrids, TD-DFT gradient, RPA, STAB
   Michael Roemelt        : Restricted open shell CIS
   Masaaki Saitow         : Open-shell DLPNO
   Barbara Sandhoefer     : DKH picture change effects
   Kantharuban Sivalingam : CASSCF convergence, NEVPT2, FIC-MRCI
   Georgi Stoychev        : AutoAux
   Boris Wezisla          : Elementary symmetry handling
   Frank Wennmohs         : Technical directorship


 We gratefully acknowledge several colleagues who have allowed us to
 interface, adapt or use parts of their codes:
   Stefan Grimme, W. Hujo, H. Kruse,             : VdW corrections, initial TS optimization,
                  C. Bannwarth                     DFT functionals, gCP, sTDA/sTD-DF
   Ed Valeev                                     : LibInt (2-el integral package), F12 methods
   Garnet Chan, S. Sharma, J. Yang, R. Olivares  : DMRG
   Ulf Ekstrom                                   : XCFun DFT Library
   Mihaly Kallay                                 : mrcc  (arbitrary order and MRCC methods)
   Jiri Pittner, Ondrej Demel                    : Mk-CCSD
   Frank Weinhold                                : gennbo (NPA and NBO analysis)
   Christopher J. Cramer and Donald G. Truhlar   : smd solvation model


 Your calculation uses the libint2 library for the computation of 2-el integrals
 For citations please refer to: http://libint.valeyev.net

 This ORCA versions uses:
   CBLAS   interface :  Fast vector & matrix operations
   LAPACKE interface :  Fast linear algebra routines
   SCALAPACK package :  Parallel linear algebra routines


Your calculation utilizes the atom-pairwise dispersion correction
with the zero-damping scheme (D30)
Cite in your paper:
S.Grimme, J.Antony, S.Ehrlich and H.Krieg, J.Chem.Phys., 132, (2010), 154104 
   

XCFun DFT library Copyright 2009-2010 Ulf Ekstrom and contributors.
See http://admol.org/xcfun for more information. This is free soft-
ware; see the source code for copying conditions. There is ABSOLUTELY
NO WARRANTY; not even for MERCHANTABILITY or FITNESS FOR A PARTICULAR
PURPOSE. For details see the documentation. Scientific users of this 
library should cite U. Ekstrom, L. Visscher, R. Bast, A. J. Thorvald-
sen and K. Ruud; J.Chem.Theor.Comp. 2010, DOI: 10.1021/ct100117s
XCFun Version 0.99 
Your calculation utilizes the basis: 6-31G(d)
   H-He, Li-Ne : W. J. Hehre, R. Ditchfield and J.A. Pople, J. Chem. Phys. 56, 2257 (1972).
                 Note: He and Ne are unpublished basis sets taken from the Gaussian program.
                 Note: Li and B from J. D. Dill and J. A. Pople, J. Chem. Phys. 62, 2921 (1975).
   Na - Ar     : M. M. Francl, W. J. Pietro, W. J. Hehre, J. S. Binkley, M. S. Gordon, 
                 D. J. DeFrees and J. A. Pople, J. Chem. Phys. 77, 3654 (1982).
   K - Zn      : V. A. Rassolov, J. A. Pople, M. A. Ratner, and T. L. Windus, J. Chem. Phys. 109, 1223 (1998).

================================================================================
                                        WARNINGS
                       Please study these warnings very carefully!
================================================================================

Warning: TCutStore was < 0. Adjusted to Thresh (uncritical)

INFO   : the flag for use of LIBINT has been found!

================================================================================
                                       INPUT FILE
================================================================================
NAME = initial25.inp
|  1> ! WB97X-D3 6-31G(d) VerySlowConv
|  2> ! KDIIS NOSOSCF
|  3> %base "Scan_25"
|  4> 
|  5> %scf
|  6> maxiter 999
|  7> end
|  8> 
|  9> * xyz 0 1
| 10> C          3.056460829648   -2.967142455285   -0.099183019080
| 11> H          3.064127261533   -2.967434934249   -1.209121457090
| 12> C          1.786474578627   -0.321356395956    0.101836845165
| 13> H          1.790056908155   -0.313333812590    1.211740822324
| 14> C         -1.139382323246   -0.097909493467   -0.105164258848
| 15> H         -1.143537193157   -0.092327379393   -1.215108197976
| 16> C         -2.796930963177   -2.519074704926    0.104266535907
| 17> H         -2.798938566067   -2.518532123782    1.214327591668
| 18> C         -1.527495527772   -5.164569631287   -0.103665782932
| 19> H         -1.531984609599   -5.168234491621   -1.213639577019
| 20> C          1.398398952764   -5.388670662760    0.101920534759
| 21> H          1.401360652291   -5.397523914682    1.211789963121
| 22> **                         ****END OF INPUT****
================================================================================

                       ****************************
                       * Single Point Calculation *
                       ****************************

---------------------------------
CARTESIAN COORDINATES (ANGSTROEM)
---------------------------------
  C      3.056461   -2.967142   -0.099183
  H      3.064127   -2.967435   -1.209121
  C      1.786475   -0.321356    0.101837
  H      1.790057   -0.313334    1.211741
  C     -1.139382   -0.097909   -0.105164
  H     -1.143537   -0.092327   -1.215108
  C     -2.796931   -2.519075    0.104267
  H     -2.798939   -2.518532    1.214328
  C     -1.527496   -5.164570   -0.103666
  H     -1.531985   -5.168234   -1.213640
  C      1.398399   -5.388671    0.101921
  H      1.401361   -5.397524    1.211790

----------------------------
CARTESIAN COORDINATES (A.U.)
----------------------------
  NO LB      ZA    FRAG     MASS         X           Y           Z
   0 C     6.0000    0    12.011    5.775874   -5.607087   -0.187429
   1 H     1.0000    0     1.008    5.790361   -5.607639   -2.284908
   2 C     6.0000    0    12.011    3.375948   -0.607276    0.192444
   3 H     1.0000    0     1.008    3.382717   -0.592115    2.289858
   4 C     6.0000    0    12.011   -2.153121   -0.185022   -0.198732
   5 H     1.0000    0     1.008   -2.160972   -0.174473   -2.296222
   6 C     6.0000    0    12.011   -5.285434   -4.760361    0.197035
   7 H     1.0000    0     1.008   -5.289227   -4.759336    2.294747
   8 C     6.0000    0    12.011   -2.886548   -9.759622   -0.195900
   9 H     1.0000    0     1.008   -2.895031   -9.766548   -2.293446
  10 C     6.0000    0    12.011    2.642591  -10.183112    0.192602
  11 H     1.0000    0     1.008    2.648188  -10.199842    2.289951

--------------------------------
INTERNAL COORDINATES (ANGSTROEM)
--------------------------------
 C      0   0   0     0.000000000000     0.00000000     0.00000000
 H      1   0   0     1.109964952552     0.00000000     0.00000000
 C      1   2   0     2.941676041875    94.10315562     0.00000000
 H      3   1   2     1.109938752113    94.21162507   180.69799316
 C      3   1   2     2.941669013593   119.53213138    83.46659050
 H      5   3   1     1.109965752151    94.27090451   276.54523170
 C      5   3   1     2.941661049936   119.53242200    13.82412771
 H      7   5   3     1.110063003789    94.11803389    83.12187437
 C      7   5   3     2.941656944527   119.47234819   346.02799147
 H      9   7   5     1.109988921844    94.12361402   276.71773010
 C      9   7   5     2.941656934036   119.52459813    13.93893702
 H     11   9   7     1.109908689824    94.19477496    83.48900636

---------------------------
INTERNAL COORDINATES (A.U.)
---------------------------
 C      0   0   0     0.000000000000     0.00000000     0.00000000
 H      1   0   0     2.097529778574     0.00000000     0.00000000
 C      1   2   0     5.558962093862    94.10315562     0.00000000
 H      3   1   2     2.097480266920    94.21162507   180.69799316
 C      3   1   2     5.558948812333   119.53213138    83.46659050
 H      5   3   1     2.097531289598    94.27090451   276.54523170
 C      5   3   1     5.558933763202   119.53242200    13.82412771
 H      7   5   3     2.097715068559    94.11803389    83.12187437
 C      7   5   3     5.558926005103   119.47234819   346.02799147
 H      9   7   5     2.097575073972    94.12361402   276.71773010
 C      9   7   5     5.558925985278   119.52459813    13.93893702
 H     11   9   7     2.097423457426    94.19477496    83.48900636

---------------------
BASIS SET INFORMATION
---------------------
There are 2 groups of distinct atoms

 Group   1 Type C   : 10s4p1d contracted to 3s2p1d pattern {631/31/1}
 Group   2 Type H   : 4s contracted to 2s pattern {31}

Atom   0C    basis set group =>   1
Atom   1H    basis set group =>   2
Atom   2C    basis set group =>   1
Atom   3H    basis set group =>   2
Atom   4C    basis set group =>   1
Atom   5H    basis set group =>   2
Atom   6C    basis set group =>   1
Atom   7H    basis set group =>   2
Atom   8C    basis set group =>   1
Atom   9H    basis set group =>   2
Atom  10C    basis set group =>   1
Atom  11H    basis set group =>   2
------------------------------------------------------------------------------
                           ORCA GTO INTEGRAL CALCULATION
------------------------------------------------------------------------------

                         BASIS SET STATISTICS AND STARTUP INFO

 # of primitive gaussian shells          ...  114
 # of primitive gaussian functions       ...  186
 # of contracted shells                  ...   48
 # of contracted basis functions         ...   96
 Highest angular momentum                ...    2
 Maximum contraction depth               ...    6
 Integral package used                   ... LIBINT
 Integral threshhold            Thresh   ...  1.000e-10
 Primitive cut-off              TCut     ...  1.000e-11


------------------------------ INTEGRAL EVALUATION ----------------------------


 * One electron integrals 
 Pre-screening matrix                    ... done
 Shell pair data                         ... done (   0.001 sec)

-------------------------------------------------------------------------------
                                 ORCA SCF
-------------------------------------------------------------------------------

------------
SCF SETTINGS
------------
Hamiltonian:
 Density Functional     Method          .... DFT(GTOs)
 Exchange Functional    Exchange        .... WB97X-D3
 Correlation Functional Correlation     .... WB97X-D3
 Gradients option       PostSCFGGA      .... off
 Hybrid DFT is turned on
   Fraction HF Exchange ScalHFX         ....  0.195728
   Scaling of DF-GGA-X  ScalDFX         ....  0.000000
   Scaling of DF-GGA-C  ScalDFC         ....  1.000000
   Scaling of DF-LDA-C  ScalLDAC        ....  1.000000
   Perturbative correction              ....  0.000000
 Long-range corrected/Screened/Range-Separated Hybrid DFT is turned on
   Amount of maximum screened exact exchange              ....  0.804272
   Range separation parameter mu (erf(mu*r12)/r12)        ....  0.250000


General Settings:
 Integral files         IntName         .... Scan_25
 Hartree-Fock type      HFTyp           .... RHF
 Total Charge           Charge          ....    0
 Multiplicity           Mult            ....    1
 Number of Electrons    NEL             ....   42
 Basis Dimension        Dim             ....   96
 Nuclear Repulsion      ENuc            ....    112.2618668670 Eh

Convergence Acceleration:
 DIIS                   CNVDIIS         .... on
   Start iteration      DIISMaxIt       ....     0
   Startup error        DIISStart       ....  0.200000
   # of expansion vecs  DIISMaxEq       ....     5
   Bias factor          DIISBfac        ....   1.050
   Max. coefficient     DIISMaxC        ....  10.000
 Newton-Raphson         CNVNR           .... off
 SOSCF                  CNVSOSCF        .... off
 Level Shifting         CNVShift        .... off
 Zerner damping         CNVZerner       .... off
 Static damping         CNVDamp         .... off
 Fernandez-Rico         CNVRico         .... off

SCF Procedure:
 Maximum # iterations   MaxIter         ....   999
 SCF integral mode      SCFMode         .... Direct
   Integral package                     .... LIBINT
 Reset frequeny         DirectResetFreq ....    20
 Integral Threshold     Thresh          ....  1.000e-10 Eh
 Primitive CutOff       TCut            ....  1.000e-11 Eh

Convergence Tolerance:
 Convergence Check Mode ConvCheckMode   .... All-Criteria
 Convergence forced     ConvForced      .... 0
 Energy Change          TolE            ....  1.000e-06 Eh
 Max Density Change     TolMaxP         ....  1.000e-05
 RMS Density Change     TolRMSP         ....  1.000e-06
 DIIS Error             TolErr          ....  1.000e-06


Diagonalization of the overlap matrix:
Smallest eigenvalue                        ... 3.991e-02
Time for diagonalization                   ...    0.002 sec
Threshold for overlap eigenvalues          ... 1.000e-08
Number of eigenvalues below threshold      ... 0
Time for construction of square roots      ...    0.006 sec
Total time needed                          ...    0.008 sec

-------------------
DFT GRID GENERATION
-------------------

General Integration Accuracy     IntAcc      ...  4.340
Radial Grid Type                 RadialGrid  ... Gauss-Chebyshev
Angular Grid (max. acc.)         AngularGrid ... Lebedev-110
Angular grid pruning method      GridPruning ... 3 (G Style)
Weight generation scheme         WeightScheme... Becke
Basis function cutoff            BFCut       ...    1.0000e-10
Integration weight cutoff        WCut        ...    1.0000e-14
Grids for H and He will be reduced by one unit

# of grid points (after initial pruning)     ...  14700 (   0.0 sec)
# of grid points (after weights+screening)   ...  14101 (   0.0 sec)
nearest neighbour list constructed           ...    0.0 sec
Grid point re-assignment to atoms done       ...    0.0 sec
Grid point division into batches done        ...    0.0 sec
Reduced shell lists constructed in    0.2 sec

Total number of grid points                  ...    14101
Total number of batches                      ...      224
Average number of points per batch           ...       62
Average number of grid points per atom       ...     1175
Average number of shells per batch           ...    27.71 (57.73%)
Average number of basis functions per batch  ...    54.53 (56.80%)
Average number of large shells per batch     ...    17.78 (64.17%)
Average number of large basis fcns per batch ...    35.26 (64.66%)
Maximum spatial batch extension              ...  20.73, 25.60, 18.88 au
Average spatial batch extension              ...   5.03,  5.19,  4.46 au

Time for grid setup =    0.235 sec

------------------------------
INITIAL GUESS: MODEL POTENTIAL
------------------------------
Loading Hartree-Fock densities                     ... done
Calculating cut-offs                               ... done
Setting up the integral package                    ... done
Initializing the effective Hamiltonian             ... done
Starting the Coulomb interaction                   ... done (   0.1 sec)
Reading the grid                                   ... done
Mapping shells                                     ... done
Starting the XC term evaluation                    ... done (   0.1 sec)
  promolecular density results
     # of electrons  =     41.999288415
     EX              =    -31.560093010
     EC              =     -1.154254201
     EX+EC           =    -32.714347211
Transforming the Hamiltonian                       ... done (   0.0 sec)
Diagonalizing the Hamiltonian                      ... done (   0.0 sec)
Back transforming the eigenvectors                 ... done (   0.0 sec)
Now organizing SCF variables                       ... done
                      ------------------
                      INITIAL GUESS DONE (   0.5 sec)
                      ------------------
--------------
SCF ITERATIONS
--------------
ITER       Energy         Delta-E        Max-DP      RMS-DP      [F,P]   Gradient Norm
               ***  Starting incremental Fock matrix formation  ***
                             ****Resetting KDIIS****
                             ****Turning on KDIIS(Cayley)****
  0   -230.6653377625   0.000000000000 0.00357333  0.00025552  0.0241036   0.024464011
  1   -230.6689129108  -0.003575148319 0.00720770  0.00060726  0.0217778   0.022169713
  2   -230.6761131816  -0.007200270807 0.01648575  0.00135524  0.0176490   0.017864518
  3   -230.6869718618  -0.010858680124 0.02435412  0.00222245  0.0104295   0.010662607
  4   -230.6932514954  -0.006279633603 0.00250538  0.00013345  0.0011573   0.001015689
  5   -230.6933013321  -0.000049836681 0.00034251  0.00002767  0.0002485   0.000143192
  6   -230.6933032598  -0.000001927718 0.00016037  0.00001112  0.0001110   0.000061155
                          ***Energy convergence achieved***
  7   -230.6933036408  -0.000000381029 0.00008531  0.00000551  0.0000577   0.000034973

            ***Energy convergence in two consecutive cycles with***
                    ***'reasonable' density convergence***
                       *** signaling convergence ***

                    *** KDIIS BlockDiag ( 0.001 sec) ***

               *****************************************************
               *                     SUCCESS                       *
               *           SCF CONVERGED AFTER   8 CYCLES          *
               *****************************************************

Setting up the final grid:

General Integration Accuracy     IntAcc      ...  4.670
Radial Grid Type                 RadialGrid  ... Gauss-Chebyshev
Angular Grid (max. acc.)         AngularGrid ... Lebedev-302
Angular grid pruning method      GridPruning ... 3 (G Style)
Weight generation scheme         WeightScheme... Becke
Basis function cutoff            BFCut       ...    1.0000e-10
Integration weight cutoff        WCut        ...    1.0000e-14
Grids for H and He will be reduced by one unit

# of grid points (after initial pruning)     ...  57636 (   0.0 sec)
# of grid points (after weights+screening)   ...  55247 (   0.1 sec)
nearest neighbour list constructed           ...    0.0 sec
Grid point re-assignment to atoms done       ...    0.0 sec
Grid point division into batches done        ...    0.2 sec
Reduced shell lists constructed in    0.7 sec

Total number of grid points                  ...    55247
Total number of batches                      ...      870
Average number of points per batch           ...       63
Average number of grid points per atom       ...     4604
Average number of shells per batch           ...    24.72 (51.51%)
Average number of basis functions per batch  ...    48.49 (50.51%)
Average number of large shells per batch     ...    15.01 (60.72%)
Average number of large basis fcns per batch ...    29.44 (60.72%)
Maximum spatial batch extension              ...  18.89, 20.94, 18.12 au
Average spatial batch extension              ...   3.06,  3.13,  2.81 au

Final grid set up in    0.8 sec
Final integration                            ... done (   0.6 sec)
Change in XC energy                          ...     0.000430412
Integrated number of electrons               ...    42.000012825
Previous integrated no of electrons          ...    42.007325956

----------------
TOTAL SCF ENERGY
----------------

Total Energy       :         -230.69287334 Eh           -6277.47222 eV

Components:
Nuclear Repulsion  :          112.26186687 Eh            3054.80070 eV
Electronic Energy  :         -342.95474021 Eh           -9332.27292 eV
One Electron Energy:         -530.36026637 Eh          -14431.83655 eV
Two Electron Energy:          187.40552616 Eh            5099.56362 eV

Virial components:
Potential Energy   :         -459.52111373 Eh          -12504.20521 eV
Kinetic Energy     :          228.82824039 Eh            6226.73298 eV
Virial Ratio       :            2.00814861


DFT components:
N(Alpha)           :       21.000006412415 electrons
N(Beta)            :       21.000006412415 electrons
N(Total)           :       42.000012824829 electrons
E(XC)              :      -22.742209793064 Eh       

---------------
SCF CONVERGENCE
---------------

  Last Energy change         ...   -1.1579e-07  Tolerance :   1.0000e-06
  Last MAX-Density change    ...    6.2848e-05  Tolerance :   1.0000e-05
  Last RMS-Density change    ...    4.8373e-06  Tolerance :   1.0000e-06
  Last DIIS Error            ...    5.0027e-05  Tolerance :   1.0000e-06

             **** THE GBW FILE WAS UPDATED (Scan_25.gbw) ****
             **** DENSITY FILE WAS UPDATED (Scan_25.scfp.tmp) ****
             **** ENERGY FILE WAS UPDATED (Scan_25.en.tmp) ****
----------------
ORBITAL ENERGIES
----------------

  NO   OCC          E(Eh)            E(eV) 
   0   2.0000     -10.405031      -283.1353 
   1   2.0000     -10.404963      -283.1334 
   2   2.0000     -10.404900      -283.1317 
   3   2.0000     -10.404847      -283.1303 
   4   2.0000     -10.404558      -283.1224 
   5   2.0000     -10.404517      -283.1213 
   6   2.0000      -0.752391       -20.4736 
   7   2.0000      -0.745664       -20.2906 
   8   2.0000      -0.745531       -20.2869 
   9   2.0000      -0.730844       -19.8873 
  10   2.0000      -0.730683       -19.8829 
  11   2.0000      -0.722762       -19.6673 
  12   2.0000      -0.407936       -11.1005 
  13   2.0000      -0.407769       -11.0960 
  14   2.0000      -0.407480       -11.0881 
  15   2.0000      -0.407378       -11.0853 
  16   2.0000      -0.406297       -11.0559 
  17   2.0000      -0.402072       -10.9409 
  18   2.0000      -0.308655        -8.3989 
  19   2.0000      -0.254897        -6.9361 
  20   2.0000      -0.254781        -6.9329 
  21   0.0000      -0.076785        -2.0894 
  22   0.0000      -0.076151        -2.0722 
  23   0.0000      -0.064424        -1.7531 
  24   0.0000      -0.020282        -0.5519 
  25   0.0000      -0.020102        -0.5470 
  26   0.0000      -0.009360        -0.2547 
  27   0.0000      -0.008935        -0.2431 
  28   0.0000       0.001648         0.0449 
  29   0.0000       0.007909         0.2152 
  30   0.0000       0.209487         5.7004 
  31   0.0000       0.221023         6.0143 
  32   0.0000       0.221128         6.0172 
  33   0.0000       0.242005         6.5853 
  34   0.0000       0.242122         6.5885 
  35   0.0000       0.251373         6.8402 
  36   0.0000       0.584259        15.8985 
  37   0.0000       0.587655        15.9909 
  38   0.0000       0.617392        16.8001 
  39   0.0000       0.617743        16.8097 
  40   0.0000       0.620767        16.8919 
  41   0.0000       0.620806        16.8930 
  42   0.0000       0.622953        16.9514 
  43   0.0000       0.623217        16.9586 
  44   0.0000       0.628053        17.0902 
  45   0.0000       0.639657        17.4059 
  46   0.0000       0.639835        17.4108 
  47   0.0000       0.668616        18.1940 
  48   0.0000       0.694677        18.9031 
  49   0.0000       0.694933        18.9101 
  50   0.0000       0.709163        19.2973 
  51   0.0000       0.709284        19.3006 
  52   0.0000       0.711317        19.3559 
  53   0.0000       0.773156        21.0386 
  54   0.0000       0.902286        24.5524 
  55   0.0000       0.919568        25.0227 
  56   0.0000       0.919643        25.0248 
  57   0.0000       0.963899        26.2290 
  58   0.0000       0.964150        26.2359 
  59   0.0000       0.970336        26.4042 
  60   0.0000       0.978331        26.6217 
  61   0.0000       0.978493        26.6261 
  62   0.0000       0.985898        26.8276 
  63   0.0000       1.049844        28.5677 
  64   0.0000       1.050312        28.5804 
  65   0.0000       1.172730        31.9116 
  66   0.0000       1.752396        47.6851 
  67   0.0000       1.752673        47.6927 
  68   0.0000       1.752739        47.6944 
  69   0.0000       1.752917        47.6993 
  70   0.0000       1.753775        47.7227 
  71   0.0000       1.754427        47.7404 
  72   0.0000       1.766021        48.0559 
  73   0.0000       1.769456        48.1493 
  74   0.0000       1.769640        48.1543 
  75   0.0000       1.770373        48.1743 
  76   0.0000       1.771355        48.2010 
  77   0.0000       1.771510        48.2052 
  78   0.0000       1.780186        48.4413 
  79   0.0000       1.781154        48.4677 
  80   0.0000       1.784901        48.5696 
  81   0.0000       1.785148        48.5764 
  82   0.0000       1.789398        48.6920 
  83   0.0000       1.790556        48.7235 
  84   0.0000       1.797119        48.9021 
  85   0.0000       1.811835        49.3025 
  86   0.0000       1.812199        49.3124 
  87   0.0000       1.828012        49.7427 
  88   0.0000       1.829098        49.7723 
  89   0.0000       1.830727        49.8166 
  90   0.0000       2.186107        59.4870 
  91   0.0000       2.197518        59.7975 
  92   0.0000       2.197591        59.7995 
  93   0.0000       2.228911        60.6518 
  94   0.0000       2.228977        60.6535 
  95   0.0000       2.251868        61.2765 

                    ********************************
                    * MULLIKEN POPULATION ANALYSIS *
                    ********************************

-----------------------
MULLIKEN ATOMIC CHARGES
-----------------------
   0 C :   -0.173279
   1 H :    0.172919
   2 C :   -0.173272
   3 H :    0.173082
   4 C :   -0.172597
   5 H :    0.173096
   6 C :   -0.173249
   7 H :    0.172860
   8 C :   -0.173175
   9 H :    0.173034
  10 C :   -0.172543
  11 H :    0.173123
Sum of atomic charges:    0.0000000

--------------------------------
MULLIKEN REDUCED ORBITAL CHARGES
--------------------------------
  0 C s       :     3.901269  s :     3.901269
      pz      :     1.232587  p :     2.257185
      px      :     0.048649
      py      :     0.975949
      dz2     :     0.014084  d :     0.014825
      dxz     :     0.000026
      dyz     :     0.000327
      dx2y2   :     0.000176
      dxy     :     0.000213
  1 H s       :     0.827081  s :     0.827081
  2 C s       :     3.901179  s :     3.901179
      pz      :     1.232886  p :     2.257278
      px      :     0.685963
      py      :     0.338429
      dz2     :     0.014070  d :     0.014814
      dxz     :     0.000231
      dyz     :     0.000120
      dx2y2   :     0.000211
      dxy     :     0.000182
  3 H s       :     0.826918  s :     0.826918
  4 C s       :     3.901082  s :     3.901082
      pz      :     1.232986  p :     2.256692
      px      :     0.807759
      py      :     0.215947
      dz2     :     0.014081  d :     0.014824
      dxz     :     0.000272
      dyz     :     0.000077
      dx2y2   :     0.000200
      dxy     :     0.000193
  5 H s       :     0.826904  s :     0.826904
  6 C s       :     3.901335  s :     3.901335
      pz      :     1.232577  p :     2.257088
      px      :     0.048538
      py      :     0.975974
      dz2     :     0.014088  d :     0.014825
      dxz     :     0.000022
      dyz     :     0.000324
      dx2y2   :     0.000175
      dxy     :     0.000216
  7 H s       :     0.827140  s :     0.827140
  8 C s       :     3.901214  s :     3.901214
      pz      :     1.232902  p :     2.257145
      px      :     0.685895
      py      :     0.338349
      dz2     :     0.014073  d :     0.014815
      dxz     :     0.000232
      dyz     :     0.000116
      dx2y2   :     0.000212
      dxy     :     0.000182
  9 H s       :     0.826966  s :     0.826966
 10 C s       :     3.901065  s :     3.901065
      pz      :     1.233005  p :     2.256653
      px      :     0.807886
      py      :     0.215762
      dz2     :     0.014079  d :     0.014825
      dxz     :     0.000273
      dyz     :     0.000081
      dx2y2   :     0.000200
      dxy     :     0.000192
 11 H s       :     0.826877  s :     0.826877


                     *******************************
                     * LOEWDIN POPULATION ANALYSIS *
                     *******************************

----------------------
LOEWDIN ATOMIC CHARGES
----------------------
   0 C :   -0.120116
   1 H :    0.119817
   2 C :   -0.120164
   3 H :    0.119983
   4 C :   -0.119554
   5 H :    0.119991
   6 C :   -0.120113
   7 H :    0.119792
   8 C :   -0.120092
   9 H :    0.119955
  10 C :   -0.119496
  11 H :    0.119997

-------------------------------
LOEWDIN REDUCED ORBITAL CHARGES
-------------------------------
  0 C s       :     3.729986  s :     3.729986
      pz      :     1.335390  p :     2.370029
      px      :     0.053300
      py      :     0.981339
      dz2     :     0.019234  d :     0.020101
      dxz     :     0.000024
      dyz     :     0.000338
      dx2y2   :     0.000224
      dxy     :     0.000281
  1 H s       :     0.880183  s :     0.880183
  2 C s       :     3.729997  s :     3.729997
      pz      :     1.335595  p :     2.370079
      px      :     0.691123
      py      :     0.343362
      dz2     :     0.019217  d :     0.020088
      dxz     :     0.000239
      dyz     :     0.000123
      dx2y2   :     0.000277
      dxy     :     0.000232
  3 H s       :     0.880017  s :     0.880017
  4 C s       :     3.729986  s :     3.729986
      pz      :     1.335611  p :     2.369473
      px      :     0.813084
      py      :     0.220778
      dz2     :     0.019227  d :     0.020096
      dxz     :     0.000281
      dyz     :     0.000078
      dx2y2   :     0.000261
      dxy     :     0.000249
  5 H s       :     0.880009  s :     0.880009
  6 C s       :     3.730067  s :     3.730067
      pz      :     1.335390  p :     2.369944
      px      :     0.053190
      py      :     0.981364
      dz2     :     0.019238  d :     0.020101
      dxz     :     0.000021
      dyz     :     0.000335
      dx2y2   :     0.000223
      dxy     :     0.000284
  7 H s       :     0.880208  s :     0.880208
  8 C s       :     3.730042  s :     3.730042
      pz      :     1.335622  p :     2.369961
      px      :     0.691054
      py      :     0.343285
      dz2     :     0.019220  d :     0.020089
      dxz     :     0.000239
      dyz     :     0.000119
      dx2y2   :     0.000278
      dxy     :     0.000233
  9 H s       :     0.880045  s :     0.880045
 10 C s       :     3.729959  s :     3.729959
      pz      :     1.335629  p :     2.369439
      px      :     0.813212
      py      :     0.220598
      dz2     :     0.019225  d :     0.020097
      dxz     :     0.000282
      dyz     :     0.000082
      dx2y2   :     0.000261
      dxy     :     0.000248
 11 H s       :     0.880003  s :     0.880003


                      *****************************
                      * MAYER POPULATION ANALYSIS *
                      *****************************

  NA   - Mulliken gross atomic population
  ZA   - Total nuclear charge
  QA   - Mulliken gross atomic charge
  VA   - Mayer's total valence
  BVA  - Mayer's bonded valence
  FA   - Mayer's free valence

  ATOM       NA         ZA         QA         VA         BVA        FA
  0 C      6.1733     6.0000    -0.1733     2.0504     2.0504     0.0000
  1 H      0.8271     1.0000     0.1729     0.9084     0.9084     0.0000
  2 C      6.1733     6.0000    -0.1733     2.0527     2.0527    -0.0000
  3 H      0.8269     1.0000     0.1731     0.9085     0.9085    -0.0000
  4 C      6.1726     6.0000    -0.1726     2.0528     2.0528    -0.0000
  5 H      0.8269     1.0000     0.1731     0.9085     0.9085    -0.0000
  6 C      6.1732     6.0000    -0.1732     2.0503     2.0503    -0.0000
  7 H      0.8271     1.0000     0.1729     0.9084     0.9084    -0.0000
  8 C      6.1732     6.0000    -0.1732     2.0526     2.0526     0.0000
  9 H      0.8270     1.0000     0.1730     0.9085     0.9085     0.0000
 10 C      6.1725     6.0000    -0.1725     2.0528     2.0528     0.0000
 11 H      0.8269     1.0000     0.1731     0.9085     0.9085     0.0000

  Mayer bond orders larger than 0.1
B(  0-C ,  1-H ) :   0.9042 B(  0-C ,  2-C ) :   0.4896 B(  0-C , 10-C ) :   0.4896 
B(  2-C ,  3-H ) :   0.9043 B(  2-C ,  4-C ) :   0.4919 B(  4-C ,  5-H ) :   0.9043 
B(  4-C ,  6-C ) :   0.4896 B(  6-C ,  7-H ) :   0.9042 B(  6-C ,  8-C ) :   0.4895 
B(  8-C ,  9-H ) :   0.9043 B(  8-C , 10-C ) :   0.4919 B( 10-C , 11-H ) :   0.9043 


-------
TIMINGS
-------

Total SCF time: 0 days 0 hours 0 min 16 sec 

Total time                  ....      16.239 sec
Sum of individual times     ....      16.052 sec  ( 98.8%)

Fock matrix formation       ....      14.632 sec  ( 90.1%)
  XC integration            ....       2.176 sec  ( 14.9% of F)
    Basis function eval.    ....       1.030 sec  ( 47.3% of XC)
    Density eval.           ....       0.144 sec  (  6.6% of XC)
    XC-Functional eval.     ....       0.561 sec  ( 25.8% of XC)
    XC-Potential eval.      ....       0.156 sec  (  7.2% of XC)
Diagonalization             ....       0.024 sec  (  0.1%)
Density matrix formation    ....       0.001 sec  (  0.0%)
Population analysis         ....       0.013 sec  (  0.1%)
Initial guess               ....       0.314 sec  (  1.9%)
Orbital Transformation      ....       0.000 sec  (  0.0%)
Orbital Orthonormalization  ....       0.000 sec  (  0.0%)
DIIS solution               ....       0.000 sec  (  0.0%)
Grid generation             ....       1.068 sec  (  6.6%)


-------------------------------------------------------------------------------
                          DFT DISPERSION CORRECTION                            
                                                                               
                              DFTD3 V3.1  Rev 1                                
                              USING zero damping                               
-------------------------------------------------------------------------------
The omegaB97X-D3 functional is recognized. Fit by Chai et al.
Active option DFTDOPT                   ...         3   

molecular C6(AA) [au] = 2489.892682 


            DFT-D V3
 parameters
 s6 scaling factor         :     1.0000 
 rs6 scaling factor        :     1.2810 
 s8 scaling factor         :     1.0000 
 rs8 scaling factor        :     1.0940 
 Damping factor alpha6     :    14.0000 
 Damping factor alpha8     :    16.0000 
 ad hoc parameters k1-k3   :    16.0000     1.3333    -4.0000 

 Edisp/kcal,au: -1.809350609194  -0.002883383424 
 E6   /kcal   :  -0.805577805 
 E8   /kcal   :  -1.003772804 
 % E8         :  55.476965011 

-------------------------   ----------------
Dispersion correction           -0.002883383
-------------------------   ----------------


-------------------------   --------------------
FINAL SINGLE POINT ENERGY      -230.695756727674
-------------------------   --------------------


                            ***************************************
                            *     ORCA property calculations      *
                            ***************************************

                                    ---------------------
                                    Active property flags
                                    ---------------------
   (+) Dipole Moment


------------------------------------------------------------------------------
                       ORCA ELECTRIC PROPERTIES CALCULATION
------------------------------------------------------------------------------

Dipole Moment Calculation                       ... on
Quadrupole Moment Calculation                   ... off
Polarizability Calculation                      ... off
GBWName                                         ... Scan_25.gbw
Electron density file                           ... Scan_25.scfp.tmp

-------------
DIPOLE MOMENT
-------------
                                X             Y             Z
Electronic contribution:     -0.00092      -0.00099       0.00003
Nuclear contribution   :      0.00308       0.00116      -0.00002
                        -----------------------------------------
Total Dipole Moment    :      0.00216       0.00016       0.00001
                        -----------------------------------------
Magnitude (a.u.)       :      0.00217
Magnitude (Debye)      :      0.00551


Timings for individual modules:

Sum of individual times         ...       16.700 sec (=   0.278 min)
GTO integral calculation        ...        0.432 sec (=   0.007 min)   2.6 %
SCF iterations                  ...       16.268 sec (=   0.271 min)  97.4 %
                             ****ORCA TERMINATED NORMALLY****
TOTAL RUN TIME: 0 days 0 hours 0 minutes 17 seconds 91 msec
