
                                 *****************
                                 * O   R   C   A *
                                 *****************

           --- An Ab Initio, DFT and Semiempirical electronic structure package ---

                  #######################################################
                  #                        -***-                        #
                  #  Department of molecular theory and spectroscopy    #
                  #              Directorship: Frank Neese              #
                  # Max Planck Institute for Chemical Energy Conversion #
                  #                  D-45470 Muelheim/Ruhr              #
                  #                       Germany                       #
                  #                                                     #
                  #                  All rights reserved                #
                  #                        -***-                        #
                  #######################################################


                         Program Version 4.0.0.2 - RELEASE -


 With contributions from (in alphabetic order):
   Daniel Aravena         : Magnetic Properties
   Michael Atanasov       : Ab Initio Ligand Field Theory
   Ute Becker             : Parallelization
   Martin Brehm           : Molecular dynamics
   Dmytro Bykov           : SCF Hessian
   Vijay G. Chilkuri      : MRCI spin determinant printing
   Dipayan Datta          : RHF DLPNO-CCSD density
   Achintya Kumar Dutta   : EOM-CC, STEOM-CC
   Dmitry Ganyushin       : Spin-Orbit,Spin-Spin,Magnetic field MRCI
   Yang Guo               : DLPNO-NEVPT2, CIM, IAO-localization
   Andreas Hansen         : Spin unrestricted coupled pair/coupled cluster methods
   Lee Huntington         : MR-EOM, pCC
   Robert Izsak           : Overlap fitted RIJCOSX, COSX-SCS-MP3, EOM
   Christian Kollmar      : KDIIS, OOCD, Brueckner-CCSD(T), CCSD density
   Simone Kossmann        : Meta GGA functionals, TD-DFT gradient, OOMP2, MP2 Hessian
   Martin Krupicka        : AUTO-CI
   Dagmar Lenk            : GEPOL surface
   Dimitrios Liakos       : Extrapolation schemes; parallel MDCI
   Dimitrios Manganas     : ROCIS; embedding schemes
   Dimitrios Pantazis     : SARC Basis sets
   Taras Petrenko         : DFT Hessian,TD-DFT gradient, ASA, ECA, R-Raman, ABS, FL, XAS/XES, NRVS
   Peter Pinski           : DLPNO-MP2
   Christoph Reimann      : Effective Core Potentials
   Marius Retegan         : Local ZFS, SOC
   Christoph Riplinger    : Optimizer, TS searches, QM/MM, DLPNO-CCSD(T), (RO)-DLPNO pert. Triples
   Tobias Risthaus        : Range-separated hybrids, TD-DFT gradient, RPA, STAB
   Michael Roemelt        : Restricted open shell CIS
   Masaaki Saitow         : Open-shell DLPNO
   Barbara Sandhoefer     : DKH picture change effects
   Kantharuban Sivalingam : CASSCF convergence, NEVPT2, FIC-MRCI
   Georgi Stoychev        : AutoAux
   Boris Wezisla          : Elementary symmetry handling
   Frank Wennmohs         : Technical directorship


 We gratefully acknowledge several colleagues who have allowed us to
 interface, adapt or use parts of their codes:
   Stefan Grimme, W. Hujo, H. Kruse,             : VdW corrections, initial TS optimization,
                  C. Bannwarth                     DFT functionals, gCP, sTDA/sTD-DF
   Ed Valeev                                     : LibInt (2-el integral package), F12 methods
   Garnet Chan, S. Sharma, J. Yang, R. Olivares  : DMRG
   Ulf Ekstrom                                   : XCFun DFT Library
   Mihaly Kallay                                 : mrcc  (arbitrary order and MRCC methods)
   Jiri Pittner, Ondrej Demel                    : Mk-CCSD
   Frank Weinhold                                : gennbo (NPA and NBO analysis)
   Christopher J. Cramer and Donald G. Truhlar   : smd solvation model


 Your calculation uses the libint2 library for the computation of 2-el integrals
 For citations please refer to: http://libint.valeyev.net

 This ORCA versions uses:
   CBLAS   interface :  Fast vector & matrix operations
   LAPACKE interface :  Fast linear algebra routines
   SCALAPACK package :  Parallel linear algebra routines


Your calculation utilizes the atom-pairwise dispersion correction
with the zero-damping scheme (D30)
Cite in your paper:
S.Grimme, J.Antony, S.Ehrlich and H.Krieg, J.Chem.Phys., 132, (2010), 154104 
   

XCFun DFT library Copyright 2009-2010 Ulf Ekstrom and contributors.
See http://admol.org/xcfun for more information. This is free soft-
ware; see the source code for copying conditions. There is ABSOLUTELY
NO WARRANTY; not even for MERCHANTABILITY or FITNESS FOR A PARTICULAR
PURPOSE. For details see the documentation. Scientific users of this 
library should cite U. Ekstrom, L. Visscher, R. Bast, A. J. Thorvald-
sen and K. Ruud; J.Chem.Theor.Comp. 2010, DOI: 10.1021/ct100117s
XCFun Version 0.99 
Your calculation utilizes the basis: 6-31G(d)
   H-He, Li-Ne : W. J. Hehre, R. Ditchfield and J.A. Pople, J. Chem. Phys. 56, 2257 (1972).
                 Note: He and Ne are unpublished basis sets taken from the Gaussian program.
                 Note: Li and B from J. D. Dill and J. A. Pople, J. Chem. Phys. 62, 2921 (1975).
   Na - Ar     : M. M. Francl, W. J. Pietro, W. J. Hehre, J. S. Binkley, M. S. Gordon, 
                 D. J. DeFrees and J. A. Pople, J. Chem. Phys. 77, 3654 (1982).
   K - Zn      : V. A. Rassolov, J. A. Pople, M. A. Ratner, and T. L. Windus, J. Chem. Phys. 109, 1223 (1998).

================================================================================
                                        WARNINGS
                       Please study these warnings very carefully!
================================================================================

Warning: TCutStore was < 0. Adjusted to Thresh (uncritical)

INFO   : the flag for use of LIBINT has been found!

================================================================================
                                       INPUT FILE
================================================================================
NAME = initial26.inp
|  1> ! WB97X-D3 6-31G(d) VerySlowConv
|  2> ! KDIIS NOSOSCF
|  3> %base "Scan_26"
|  4> 
|  5> %scf
|  6> maxiter 999
|  7> end
|  8> 
|  9> * xyz 0 1
| 10> C          3.159999758954   -2.975025889125   -0.111126489652
| 11> H          3.127779082062   -2.972508458991   -1.221937532603
| 12> C          1.845503609796   -0.234696669345    0.113565110039
| 13> H          1.825252212416   -0.261066966480    1.224339524926
| 14> C         -1.184481164832   -0.002909231755   -0.117217765881
| 15> H         -1.170403535244   -0.035181005389   -1.227925319026
| 16> C         -2.899878643596   -2.510952704414    0.117118717098
| 17> H         -2.863704372295   -2.513425426421    1.227799414486
| 18> C         -1.586112344299   -5.250918887413   -0.116078096131
| 19> H         -1.567544912572   -5.221459070376   -1.226802051988
| 20> C          1.443887091678   -5.483447444351    0.113739204782
| 21> H          1.428313217934   -5.454518245941    1.224525283948
| 22> **                         ****END OF INPUT****
================================================================================

                       ****************************
                       * Single Point Calculation *
                       ****************************

---------------------------------
CARTESIAN COORDINATES (ANGSTROEM)
---------------------------------
  C      3.160000   -2.975026   -0.111126
  H      3.127779   -2.972508   -1.221938
  C      1.845504   -0.234697    0.113565
  H      1.825252   -0.261067    1.224340
  C     -1.184481   -0.002909   -0.117218
  H     -1.170404   -0.035181   -1.227925
  C     -2.899879   -2.510953    0.117119
  H     -2.863704   -2.513425    1.227799
  C     -1.586112   -5.250919   -0.116078
  H     -1.567545   -5.221459   -1.226802
  C      1.443887   -5.483447    0.113739
  H      1.428313   -5.454518    1.224525

----------------------------
CARTESIAN COORDINATES (A.U.)
----------------------------
  NO LB      ZA    FRAG     MASS         X           Y           Z
   0 C     6.0000    0    12.011    5.971534   -5.621984   -0.209999
   1 H     1.0000    0     1.008    5.910646   -5.617227   -2.309127
   2 C     6.0000    0    12.011    3.487496   -0.443512    0.214607
   3 H     1.0000    0     1.008    3.449227   -0.493345    2.313666
   4 C     6.0000    0    12.011   -2.238345   -0.005498   -0.221509
   5 H     1.0000    0     1.008   -2.211742   -0.066482   -2.320443
   6 C     6.0000    0    12.011   -5.479976   -4.745013    0.221322
   7 H     1.0000    0     1.008   -5.411617   -4.749686    2.320205
   8 C     6.0000    0    12.011   -2.997318   -9.922799   -0.219356
   9 H     1.0000    0     1.008   -2.962231   -9.867128   -2.318320
  10 C     6.0000    0    12.011    2.728551  -10.362214    0.214936
  11 H     1.0000    0     1.008    2.699121  -10.307546    2.314017

--------------------------------
INTERNAL COORDINATES (ANGSTROEM)
--------------------------------
 C      0   0   0     0.000000000000     0.00000000     0.00000000
 H      1   0   0     1.111281099729     0.00000000     0.00000000
 C      1   2   0     3.047587681085    93.39123636     0.00000000
 H      3   1   2     1.111271934512    93.45230127   177.02319287
 C      3   1   2     3.047588208161   119.44823302    81.14739367
 H      5   3   1     1.111265456874    93.49059727   278.94862347
 C      5   3   1     3.047586612084   119.41985617    14.88979333
 H      7   5   3     1.111272380566    93.46048191    80.87615813
 C      7   5   3     3.047585491311   119.43023943   344.92719777
 H      9   7   5     1.111269695643    93.43117394   279.09882159
 C      9   7   5     3.047586275007   119.43422714    15.05389953
 H     11   9   7     1.111271864907    93.40863414    81.05678567

---------------------------
INTERNAL COORDINATES (A.U.)
---------------------------
 C      0   0   0     0.000000000000     0.00000000     0.00000000
 H      1   0   0     2.100016936291     0.00000000     0.00000000
 C      1   2   0     5.759106086363    93.39123636     0.00000000
 H      3   1   2     2.099999616541    93.45230127   177.02319287
 C      3   1   2     5.759107082391   119.44823302    81.14739367
 H      5   3   1     2.099987375579    93.49059727   278.94862347
 C      5   3   1     5.759104066243   119.41985617    14.88979333
 H      7   5   3     2.100000459460    93.46048191    80.87615813
 C      7   5   3     5.759101948289   119.43023943   344.92719777
 H      9   7   5     2.099995385692    93.43117394   279.09882159
 C      9   7   5     5.759103429261   119.43422714    15.05389953
 H     11   9   7     2.099999485005    93.40863414    81.05678567

---------------------
BASIS SET INFORMATION
---------------------
There are 2 groups of distinct atoms

 Group   1 Type C   : 10s4p1d contracted to 3s2p1d pattern {631/31/1}
 Group   2 Type H   : 4s contracted to 2s pattern {31}

Atom   0C    basis set group =>   1
Atom   1H    basis set group =>   2
Atom   2C    basis set group =>   1
Atom   3H    basis set group =>   2
Atom   4C    basis set group =>   1
Atom   5H    basis set group =>   2
Atom   6C    basis set group =>   1
Atom   7H    basis set group =>   2
Atom   8C    basis set group =>   1
Atom   9H    basis set group =>   2
Atom  10C    basis set group =>   1
Atom  11H    basis set group =>   2
------------------------------------------------------------------------------
                           ORCA GTO INTEGRAL CALCULATION
------------------------------------------------------------------------------

                         BASIS SET STATISTICS AND STARTUP INFO

 # of primitive gaussian shells          ...  114
 # of primitive gaussian functions       ...  186
 # of contracted shells                  ...   48
 # of contracted basis functions         ...   96
 Highest angular momentum                ...    2
 Maximum contraction depth               ...    6
 Integral package used                   ... LIBINT
 Integral threshhold            Thresh   ...  1.000e-10
 Primitive cut-off              TCut     ...  1.000e-11


------------------------------ INTEGRAL EVALUATION ----------------------------


 * One electron integrals 
 Pre-screening matrix                    ... done
 Shell pair data                         ... done (   0.001 sec)

-------------------------------------------------------------------------------
                                 ORCA SCF
-------------------------------------------------------------------------------

------------
SCF SETTINGS
------------
Hamiltonian:
 Density Functional     Method          .... DFT(GTOs)
 Exchange Functional    Exchange        .... WB97X-D3
 Correlation Functional Correlation     .... WB97X-D3
 Gradients option       PostSCFGGA      .... off
 Hybrid DFT is turned on
   Fraction HF Exchange ScalHFX         ....  0.195728
   Scaling of DF-GGA-X  ScalDFX         ....  0.000000
   Scaling of DF-GGA-C  ScalDFC         ....  1.000000
   Scaling of DF-LDA-C  ScalLDAC        ....  1.000000
   Perturbative correction              ....  0.000000
 Long-range corrected/Screened/Range-Separated Hybrid DFT is turned on
   Amount of maximum screened exact exchange              ....  0.804272
   Range separation parameter mu (erf(mu*r12)/r12)        ....  0.250000


General Settings:
 Integral files         IntName         .... Scan_26
 Hartree-Fock type      HFTyp           .... RHF
 Total Charge           Charge          ....    0
 Multiplicity           Mult            ....    1
 Number of Electrons    NEL             ....   42
 Basis Dimension        Dim             ....   96
 Nuclear Repulsion      ENuc            ....    109.1574435191 Eh

Convergence Acceleration:
 DIIS                   CNVDIIS         .... on
   Start iteration      DIISMaxIt       ....     0
   Startup error        DIISStart       ....  0.200000
   # of expansion vecs  DIISMaxEq       ....     5
   Bias factor          DIISBfac        ....   1.050
   Max. coefficient     DIISMaxC        ....  10.000
 Newton-Raphson         CNVNR           .... off
 SOSCF                  CNVSOSCF        .... off
 Level Shifting         CNVShift        .... off
 Zerner damping         CNVZerner       .... off
 Static damping         CNVDamp         .... off
 Fernandez-Rico         CNVRico         .... off

SCF Procedure:
 Maximum # iterations   MaxIter         ....   999
 SCF integral mode      SCFMode         .... Direct
   Integral package                     .... LIBINT
 Reset frequeny         DirectResetFreq ....    20
 Integral Threshold     Thresh          ....  1.000e-10 Eh
 Primitive CutOff       TCut            ....  1.000e-11 Eh

Convergence Tolerance:
 Convergence Check Mode ConvCheckMode   .... All-Criteria
 Convergence forced     ConvForced      .... 0
 Energy Change          TolE            ....  1.000e-06 Eh
 Max Density Change     TolMaxP         ....  1.000e-05
 RMS Density Change     TolRMSP         ....  1.000e-06
 DIIS Error             TolErr          ....  1.000e-06


Diagonalization of the overlap matrix:
Smallest eigenvalue                        ... 4.127e-02
Time for diagonalization                   ...    0.002 sec
Threshold for overlap eigenvalues          ... 1.000e-08
Number of eigenvalues below threshold      ... 0
Time for construction of square roots      ...    0.006 sec
Total time needed                          ...    0.009 sec

-------------------
DFT GRID GENERATION
-------------------

General Integration Accuracy     IntAcc      ...  4.340
Radial Grid Type                 RadialGrid  ... Gauss-Chebyshev
Angular Grid (max. acc.)         AngularGrid ... Lebedev-110
Angular grid pruning method      GridPruning ... 3 (G Style)
Weight generation scheme         WeightScheme... Becke
Basis function cutoff            BFCut       ...    1.0000e-10
Integration weight cutoff        WCut        ...    1.0000e-14
Grids for H and He will be reduced by one unit

# of grid points (after initial pruning)     ...  14700 (   0.0 sec)
# of grid points (after weights+screening)   ...  14130 (   0.0 sec)
nearest neighbour list constructed           ...    0.0 sec
Grid point re-assignment to atoms done       ...    0.0 sec
Grid point division into batches done        ...    0.0 sec
Reduced shell lists constructed in    0.2 sec

Total number of grid points                  ...    14130
Total number of batches                      ...      228
Average number of points per batch           ...       61
Average number of grid points per atom       ...     1178
Average number of shells per batch           ...    26.97 (56.20%)
Average number of basis functions per batch  ...    52.89 (55.09%)
Average number of large shells per batch     ...    17.14 (63.53%)
Average number of large basis fcns per batch ...    33.78 (63.88%)
Maximum spatial batch extension              ...  21.01, 25.60, 19.00 au
Average spatial batch extension              ...   4.94,  5.08,  4.42 au

Time for grid setup =    0.231 sec

------------------------------
INITIAL GUESS: MODEL POTENTIAL
------------------------------
Loading Hartree-Fock densities                     ... done
Calculating cut-offs                               ... done
Setting up the integral package                    ... done
Initializing the effective Hamiltonian             ... done
Starting the Coulomb interaction                   ... done (   0.1 sec)
Reading the grid                                   ... done
Mapping shells                                     ... done
Starting the XC term evaluation                    ... done (   0.1 sec)
  promolecular density results
     # of electrons  =     41.999420795
     EX              =    -31.554777463
     EC              =     -1.150602313
     EX+EC           =    -32.705379776
Transforming the Hamiltonian                       ... done (   0.0 sec)
Diagonalizing the Hamiltonian                      ... done (   0.0 sec)
Back transforming the eigenvectors                 ... done (   0.0 sec)
Now organizing SCF variables                       ... done
                      ------------------
                      INITIAL GUESS DONE (   0.5 sec)
                      ------------------
--------------
SCF ITERATIONS
--------------
ITER       Energy         Delta-E        Max-DP      RMS-DP      [F,P]   Gradient Norm
               ***  Starting incremental Fock matrix formation  ***
                             ****Resetting KDIIS****
                             ****Turning on KDIIS(Cayley)****
  0   -230.6309377797   0.000000000000 0.00385518  0.00026668  0.0248564   0.024828480
  1   -230.6347183494  -0.003780569689 0.00751888  0.00063240  0.0224382   0.022496949
  2   -230.6423936092  -0.007675259808 0.01729969  0.00137814  0.0182615   0.018154602
  3   -230.6539617844  -0.011568175178 0.02731862  0.00245760  0.0110447   0.010909324
  4   -230.6612201166  -0.007258332241 0.00271453  0.00017326  0.0014993   0.001052787
  5   -230.6612834984  -0.000063381843 0.00037425  0.00002619  0.0002763   0.000146944
  6   -230.6612856603  -0.000002161855 0.00023254  0.00001424  0.0001114   0.000070145
                          ***Energy convergence achieved***
  7   -230.6612862783  -0.000000617950 0.00014194  0.00000790  0.0000828   0.000043406

            ***Energy convergence in two consecutive cycles with***
                    ***'reasonable' density convergence***
                       *** signaling convergence ***

                    *** KDIIS BlockDiag ( 0.001 sec) ***

               *****************************************************
               *                     SUCCESS                       *
               *           SCF CONVERGED AFTER   8 CYCLES          *
               *****************************************************

Setting up the final grid:

General Integration Accuracy     IntAcc      ...  4.670
Radial Grid Type                 RadialGrid  ... Gauss-Chebyshev
Angular Grid (max. acc.)         AngularGrid ... Lebedev-302
Angular grid pruning method      GridPruning ... 3 (G Style)
Weight generation scheme         WeightScheme... Becke
Basis function cutoff            BFCut       ...    1.0000e-10
Integration weight cutoff        WCut        ...    1.0000e-14
Grids for H and He will be reduced by one unit

# of grid points (after initial pruning)     ...  57636 (   0.0 sec)
# of grid points (after weights+screening)   ...  55363 (   0.1 sec)
nearest neighbour list constructed           ...    0.0 sec
Grid point re-assignment to atoms done       ...    0.0 sec
Grid point division into batches done        ...    0.2 sec
Reduced shell lists constructed in    0.7 sec

Total number of grid points                  ...    55363
Total number of batches                      ...      874
Average number of points per batch           ...       63
Average number of grid points per atom       ...     4614
Average number of shells per batch           ...    24.06 (50.12%)
Average number of basis functions per batch  ...    46.98 (48.93%)
Average number of large shells per batch     ...    14.49 (60.22%)
Average number of large basis fcns per batch ...    28.32 (60.29%)
Maximum spatial batch extension              ...  18.97, 21.31, 19.80 au
Average spatial batch extension              ...   3.07,  3.17,  2.87 au

Final grid set up in    0.8 sec
Final integration                            ... done (   0.6 sec)
Change in XC energy                          ...     0.000094938
Integrated number of electrons               ...    42.000002466
Previous integrated no of electrons          ...    42.005982360

----------------
TOTAL SCF ENERGY
----------------

Total Energy       :         -230.66119158 Eh           -6276.61012 eV

Components:
Nuclear Repulsion  :          109.15744352 Eh            2970.32505 eV
Electronic Energy  :         -339.81863510 Eh           -9246.93517 eV
One Electron Energy:         -524.06354815 Eh          -14260.49413 eV
Two Electron Energy:          184.24491305 Eh            5013.55897 eV

Virial components:
Potential Energy   :         -459.52397025 Eh          -12504.28294 eV
Kinetic Energy     :          228.86277867 Eh            6227.67282 eV
Virial Ratio       :            2.00785804


DFT components:
N(Alpha)           :       21.000001233185 electrons
N(Beta)            :       21.000001233185 electrons
N(Total)           :       42.000002466369 electrons
E(XC)              :      -22.735127346727 Eh       

---------------
SCF CONVERGENCE
---------------

  Last Energy change         ...   -2.4028e-07  Tolerance :   1.0000e-06
  Last MAX-Density change    ...    9.9451e-05  Tolerance :   1.0000e-05
  Last RMS-Density change    ...    7.0148e-06  Tolerance :   1.0000e-06
  Last DIIS Error            ...    6.5143e-05  Tolerance :   1.0000e-06

             **** THE GBW FILE WAS UPDATED (Scan_26.gbw) ****
             **** DENSITY FILE WAS UPDATED (Scan_26.scfp.tmp) ****
             **** ENERGY FILE WAS UPDATED (Scan_26.en.tmp) ****
----------------
ORBITAL ENERGIES
----------------

  NO   OCC          E(Eh)            E(eV) 
   0   2.0000     -10.406645      -283.1792 
   1   2.0000     -10.406624      -283.1786 
   2   2.0000     -10.406599      -283.1779 
   3   2.0000     -10.406581      -283.1775 
   4   2.0000     -10.406091      -283.1641 
   5   2.0000     -10.406017      -283.1621 
   6   2.0000      -0.751628       -20.4528 
   7   2.0000      -0.746033       -20.3006 
   8   2.0000      -0.745864       -20.2960 
   9   2.0000      -0.733528       -19.9603 
  10   2.0000      -0.733355       -19.9556 
  11   2.0000      -0.726713       -19.7749 
  12   2.0000      -0.408318       -11.1109 
  13   2.0000      -0.408187       -11.1073 
  14   2.0000      -0.408039       -11.1033 
  15   2.0000      -0.407881       -11.0990 
  16   2.0000      -0.406861       -11.0713 
  17   2.0000      -0.403951       -10.9921 
  18   2.0000      -0.302892        -8.2421 
  19   2.0000      -0.253182        -6.8894 
  20   2.0000      -0.253048        -6.8858 
  21   0.0000      -0.079780        -2.1709 
  22   0.0000      -0.078821        -2.1448 
  23   0.0000      -0.062269        -1.6944 
  24   0.0000      -0.026676        -0.7259 
  25   0.0000      -0.026377        -0.7177 
  26   0.0000      -0.014328        -0.3899 
  27   0.0000      -0.013820        -0.3761 
  28   0.0000      -0.005118        -0.1393 
  29   0.0000      -0.004675        -0.1272 
  30   0.0000       0.209460         5.6997 
  31   0.0000       0.219811         5.9814 
  32   0.0000       0.219991         5.9863 
  33   0.0000       0.238874         6.5001 
  34   0.0000       0.238980         6.5030 
  35   0.0000       0.247413         6.7325 
  36   0.0000       0.578108        15.7311 
  37   0.0000       0.588964        16.0265 
  38   0.0000       0.606008        16.4903 
  39   0.0000       0.606123        16.4934 
  40   0.0000       0.606652        16.5078 
  41   0.0000       0.607025        16.5180 
  42   0.0000       0.607438        16.5292 
  43   0.0000       0.620619        16.8879 
  44   0.0000       0.620954        16.8970 
  45   0.0000       0.644787        17.5455 
  46   0.0000       0.644981        17.5508 
  47   0.0000       0.671387        18.2694 
  48   0.0000       0.688233        18.7278 
  49   0.0000       0.688548        18.7364 
  50   0.0000       0.704235        19.1632 
  51   0.0000       0.704305        19.1651 
  52   0.0000       0.707703        19.2576 
  53   0.0000       0.759792        20.6750 
  54   0.0000       0.894672        24.3453 
  55   0.0000       0.910166        24.7669 
  56   0.0000       0.910286        24.7701 
  57   0.0000       0.951856        25.9013 
  58   0.0000       0.951999        25.9052 
  59   0.0000       0.965196        26.2643 
  60   0.0000       0.975731        26.5510 
  61   0.0000       0.975859        26.5545 
  62   0.0000       0.976109        26.5613 
  63   0.0000       1.037199        28.2236 
  64   0.0000       1.037426        28.2298 
  65   0.0000       1.128474        30.7073 
  66   0.0000       1.750731        47.6398 
  67   0.0000       1.750932        47.6453 
  68   0.0000       1.751018        47.6476 
  69   0.0000       1.751081        47.6493 
  70   0.0000       1.751591        47.6632 
  71   0.0000       1.751975        47.6737 
  72   0.0000       1.764889        48.0251 
  73   0.0000       1.766927        48.0805 
  74   0.0000       1.767002        48.0826 
  75   0.0000       1.767854        48.1058 
  76   0.0000       1.768321        48.1185 
  77   0.0000       1.768416        48.1210 
  78   0.0000       1.780128        48.4397 
  79   0.0000       1.780312        48.4448 
  80   0.0000       1.782869        48.5143 
  81   0.0000       1.783002        48.5180 
  82   0.0000       1.785844        48.5953 
  83   0.0000       1.787033        48.6276 
  84   0.0000       1.790072        48.7103 
  85   0.0000       1.798626        48.9431 
  86   0.0000       1.798966        48.9524 
  87   0.0000       1.810081        49.2548 
  88   0.0000       1.811215        49.2857 
  89   0.0000       1.812357        49.3167 
  90   0.0000       2.186528        59.4985 
  91   0.0000       2.195813        59.7511 
  92   0.0000       2.195966        59.7553 
  93   0.0000       2.222323        60.4725 
  94   0.0000       2.222446        60.4758 
  95   0.0000       2.241347        60.9902 

                    ********************************
                    * MULLIKEN POPULATION ANALYSIS *
                    ********************************

-----------------------
MULLIKEN ATOMIC CHARGES
-----------------------
   0 C :   -0.171834
   1 H :    0.171137
   2 C :   -0.171249
   3 H :    0.171313
   4 C :   -0.170696
   5 H :    0.171361
   6 C :   -0.171868
   7 H :    0.171105
   8 C :   -0.171226
   9 H :    0.171305
  10 C :   -0.170727
  11 H :    0.171380
Sum of atomic charges:   -0.0000000

--------------------------------
MULLIKEN REDUCED ORBITAL CHARGES
--------------------------------
  0 C s       :     3.907334  s :     3.907334
      pz      :     1.231175  p :     2.249711
      px      :     0.040422
      py      :     0.978113
      dz2     :     0.014083  d :     0.014789
      dxz     :     0.000043
      dyz     :     0.000340
      dx2y2   :     0.000137
      dxy     :     0.000186
  1 H s       :     0.828863  s :     0.828863
  2 C s       :     3.907177  s :     3.907177
      pz      :     1.231528  p :     2.249290
      px      :     0.685874
      py      :     0.331888
      dz2     :     0.014068  d :     0.014782
      dxz     :     0.000250
      dyz     :     0.000134
      dx2y2   :     0.000186
      dxy     :     0.000144
  3 H s       :     0.828687  s :     0.828687
  4 C s       :     3.907176  s :     3.907176
      pz      :     1.231450  p :     2.248727
      px      :     0.809188
      py      :     0.208089
      dz2     :     0.014075  d :     0.014793
      dxz     :     0.000288
      dyz     :     0.000100
      dx2y2   :     0.000171
      dxy     :     0.000159
  5 H s       :     0.828639  s :     0.828639
  6 C s       :     3.907340  s :     3.907340
      pz      :     1.230837  p :     2.249741
      px      :     0.040650
      py      :     0.978254
      dz2     :     0.014077  d :     0.014788
      dxz     :     0.000051
      dyz     :     0.000337
      dx2y2   :     0.000136
      dxy     :     0.000188
  7 H s       :     0.828895  s :     0.828895
  8 C s       :     3.907180  s :     3.907180
      pz      :     1.231397  p :     2.249264
      px      :     0.685841
      py      :     0.332025
      dz2     :     0.014065  d :     0.014782
      dxz     :     0.000248
      dyz     :     0.000138
      dx2y2   :     0.000186
      dxy     :     0.000144
  9 H s       :     0.828695  s :     0.828695
 10 C s       :     3.907166  s :     3.907166
      pz      :     1.231652  p :     2.248768
      px      :     0.809231
      py      :     0.207885
      dz2     :     0.014078  d :     0.014793
      dxz     :     0.000290
      dyz     :     0.000095
      dx2y2   :     0.000171
      dxy     :     0.000157
 11 H s       :     0.828620  s :     0.828620


                     *******************************
                     * LOEWDIN POPULATION ANALYSIS *
                     *******************************

----------------------
LOEWDIN ATOMIC CHARGES
----------------------
   0 C :   -0.119477
   1 H :    0.118879
   2 C :   -0.119031
   3 H :    0.119077
   4 C :   -0.118513
   5 H :    0.119092
   6 C :   -0.119517
   7 H :    0.118868
   8 C :   -0.119013
   9 H :    0.119077
  10 C :   -0.118538
  11 H :    0.119098

-------------------------------
LOEWDIN REDUCED ORBITAL CHARGES
-------------------------------
  0 C s       :     3.737993  s :     3.737993
      pz      :     1.335690  p :     2.361461
      px      :     0.043811
      py      :     0.981960
      dz2     :     0.019223  d :     0.020024
      dxz     :     0.000057
      dyz     :     0.000351
      dx2y2   :     0.000166
      dxy     :     0.000227
  1 H s       :     0.881121  s :     0.881121
  2 C s       :     3.738028  s :     3.738028
      pz      :     1.335889  p :     2.360991
      px      :     0.689619
      py      :     0.335483
      dz2     :     0.019202  d :     0.020012
      dxz     :     0.000263
      dyz     :     0.000147
      dx2y2   :     0.000226
      dxy     :     0.000175
  3 H s       :     0.880923  s :     0.880923
  4 C s       :     3.738065  s :     3.738065
      pz      :     1.335736  p :     2.360425
      px      :     0.813018
      py      :     0.211671
      dz2     :     0.019206  d :     0.020023
      dxz     :     0.000299
      dyz     :     0.000116
      dx2y2   :     0.000208
      dxy     :     0.000193
  5 H s       :     0.880908  s :     0.880908
  6 C s       :     3.737984  s :     3.737984
      pz      :     1.335349  p :     2.361509
      px      :     0.044062
      py      :     0.982098
      dz2     :     0.019214  d :     0.020025
      dxz     :     0.000069
      dyz     :     0.000348
      dx2y2   :     0.000166
      dxy     :     0.000229
  7 H s       :     0.881132  s :     0.881132
  8 C s       :     3.738028  s :     3.738028
      pz      :     1.335753  p :     2.360972
      px      :     0.689577
      py      :     0.335641
      dz2     :     0.019199  d :     0.020013
      dxz     :     0.000260
      dyz     :     0.000153
      dx2y2   :     0.000226
      dxy     :     0.000175
  9 H s       :     0.880923  s :     0.880923
 10 C s       :     3.738064  s :     3.738064
      pz      :     1.335939  p :     2.360452
      px      :     0.813068
      py      :     0.211445
      dz2     :     0.019212  d :     0.020022
      dxz     :     0.000302
      dyz     :     0.000108
      dx2y2   :     0.000208
      dxy     :     0.000192
 11 H s       :     0.880902  s :     0.880902


                      *****************************
                      * MAYER POPULATION ANALYSIS *
                      *****************************

  NA   - Mulliken gross atomic population
  ZA   - Total nuclear charge
  QA   - Mulliken gross atomic charge
  VA   - Mayer's total valence
  BVA  - Mayer's bonded valence
  FA   - Mayer's free valence

  ATOM       NA         ZA         QA         VA         BVA        FA
  0 C      6.1718     6.0000    -0.1718     2.0194     2.0194     0.0000
  1 H      0.8289     1.0000     0.1711     0.9079     0.9079     0.0000
  2 C      6.1712     6.0000    -0.1712     2.0221     2.0221    -0.0000
  3 H      0.8287     1.0000     0.1713     0.9080     0.9080    -0.0000
  4 C      6.1707     6.0000    -0.1707     2.0227     2.0227    -0.0000
  5 H      0.8286     1.0000     0.1714     0.9080     0.9080    -0.0000
  6 C      6.1719     6.0000    -0.1719     2.0194     2.0194    -0.0000
  7 H      0.8289     1.0000     0.1711     0.9078     0.9078    -0.0000
  8 C      6.1712     6.0000    -0.1712     2.0222     2.0222     0.0000
  9 H      0.8287     1.0000     0.1713     0.9080     0.9080     0.0000
 10 C      6.1707     6.0000    -0.1707     2.0226     2.0226     0.0000
 11 H      0.8286     1.0000     0.1714     0.9080     0.9080     0.0000

  Mayer bond orders larger than 0.1
B(  0-C ,  1-H ) :   0.9046 B(  0-C ,  2-C ) :   0.4773 B(  0-C , 10-C ) :   0.4777 
B(  2-C ,  3-H ) :   0.9046 B(  2-C ,  4-C ) :   0.4808 B(  4-C ,  5-H ) :   0.9046 
B(  4-C ,  6-C ) :   0.4777 B(  6-C ,  7-H ) :   0.9045 B(  6-C ,  8-C ) :   0.4773 
B(  8-C ,  9-H ) :   0.9046 B(  8-C , 10-C ) :   0.4809 B( 10-C , 11-H ) :   0.9046 


-------
TIMINGS
-------

Total SCF time: 0 days 0 hours 0 min 15 sec 

Total time                  ....      15.417 sec
Sum of individual times     ....      15.205 sec  ( 98.6%)

Fock matrix formation       ....      13.809 sec  ( 89.6%)
  XC integration            ....       2.129 sec  ( 15.4% of F)
    Basis function eval.    ....       0.986 sec  ( 46.3% of XC)
    Density eval.           ....       0.137 sec  (  6.5% of XC)
    XC-Functional eval.     ....       0.566 sec  ( 26.6% of XC)
    XC-Potential eval.      ....       0.144 sec  (  6.8% of XC)
Diagonalization             ....       0.023 sec  (  0.2%)
Density matrix formation    ....       0.001 sec  (  0.0%)
Population analysis         ....       0.013 sec  (  0.1%)
Initial guess               ....       0.308 sec  (  2.0%)
Orbital Transformation      ....       0.000 sec  (  0.0%)
Orbital Orthonormalization  ....       0.000 sec  (  0.0%)
DIIS solution               ....       0.000 sec  (  0.0%)
Grid generation             ....       1.051 sec  (  6.8%)


-------------------------------------------------------------------------------
                          DFT DISPERSION CORRECTION                            
                                                                               
                              DFTD3 V3.1  Rev 1                                
                              USING zero damping                               
-------------------------------------------------------------------------------
The omegaB97X-D3 functional is recognized. Fit by Chai et al.
Active option DFTDOPT                   ...         3   

molecular C6(AA) [au] = 2490.472350 


            DFT-D V3
 parameters
 s6 scaling factor         :     1.0000 
 rs6 scaling factor        :     1.2810 
 s8 scaling factor         :     1.0000 
 rs8 scaling factor        :     1.0940 
 Damping factor alpha6     :    14.0000 
 Damping factor alpha8     :    16.0000 
 ad hoc parameters k1-k3   :    16.0000     1.3333    -4.0000 

 Edisp/kcal,au: -1.763552730628  -0.002810399867 
 E6   /kcal   :  -0.796751522 
 E8   /kcal   :  -0.966801208 
 % E8         :  54.821224886 

-------------------------   ----------------
Dispersion correction           -0.002810400
-------------------------   ----------------


-------------------------   --------------------
FINAL SINGLE POINT ENERGY      -230.664001980673
-------------------------   --------------------


                            ***************************************
                            *     ORCA property calculations      *
                            ***************************************

                                    ---------------------
                                    Active property flags
                                    ---------------------
   (+) Dipole Moment


------------------------------------------------------------------------------
                       ORCA ELECTRIC PROPERTIES CALCULATION
------------------------------------------------------------------------------

Dipole Moment Calculation                       ... on
Quadrupole Moment Calculation                   ... off
Polarizability Calculation                      ... off
GBWName                                         ... Scan_26.gbw
Electron density file                           ... Scan_26.scfp.tmp

-------------
DIPOLE MOMENT
-------------
                                X             Y             Z
Electronic contribution:      0.00001       0.00006      -0.00004
Nuclear contribution   :      0.00067      -0.00018      -0.00000
                        -----------------------------------------
Total Dipole Moment    :      0.00068      -0.00012      -0.00004
                        -----------------------------------------
Magnitude (a.u.)       :      0.00069
Magnitude (Debye)      :      0.00176


Timings for individual modules:

Sum of individual times         ...       15.877 sec (=   0.265 min)
GTO integral calculation        ...        0.432 sec (=   0.007 min)   2.7 %
SCF iterations                  ...       15.444 sec (=   0.257 min)  97.3 %
                             ****ORCA TERMINATED NORMALLY****
TOTAL RUN TIME: 0 days 0 hours 0 minutes 16 seconds 270 msec
