
                                 *****************
                                 * O   R   C   A *
                                 *****************

           --- An Ab Initio, DFT and Semiempirical electronic structure package ---

                  #######################################################
                  #                        -***-                        #
                  #  Department of molecular theory and spectroscopy    #
                  #              Directorship: Frank Neese              #
                  # Max Planck Institute for Chemical Energy Conversion #
                  #                  D-45470 Muelheim/Ruhr              #
                  #                       Germany                       #
                  #                                                     #
                  #                  All rights reserved                #
                  #                        -***-                        #
                  #######################################################


                         Program Version 4.0.0.2 - RELEASE -


 With contributions from (in alphabetic order):
   Daniel Aravena         : Magnetic Properties
   Michael Atanasov       : Ab Initio Ligand Field Theory
   Ute Becker             : Parallelization
   Martin Brehm           : Molecular dynamics
   Dmytro Bykov           : SCF Hessian
   Vijay G. Chilkuri      : MRCI spin determinant printing
   Dipayan Datta          : RHF DLPNO-CCSD density
   Achintya Kumar Dutta   : EOM-CC, STEOM-CC
   Dmitry Ganyushin       : Spin-Orbit,Spin-Spin,Magnetic field MRCI
   Yang Guo               : DLPNO-NEVPT2, CIM, IAO-localization
   Andreas Hansen         : Spin unrestricted coupled pair/coupled cluster methods
   Lee Huntington         : MR-EOM, pCC
   Robert Izsak           : Overlap fitted RIJCOSX, COSX-SCS-MP3, EOM
   Christian Kollmar      : KDIIS, OOCD, Brueckner-CCSD(T), CCSD density
   Simone Kossmann        : Meta GGA functionals, TD-DFT gradient, OOMP2, MP2 Hessian
   Martin Krupicka        : AUTO-CI
   Dagmar Lenk            : GEPOL surface
   Dimitrios Liakos       : Extrapolation schemes; parallel MDCI
   Dimitrios Manganas     : ROCIS; embedding schemes
   Dimitrios Pantazis     : SARC Basis sets
   Taras Petrenko         : DFT Hessian,TD-DFT gradient, ASA, ECA, R-Raman, ABS, FL, XAS/XES, NRVS
   Peter Pinski           : DLPNO-MP2
   Christoph Reimann      : Effective Core Potentials
   Marius Retegan         : Local ZFS, SOC
   Christoph Riplinger    : Optimizer, TS searches, QM/MM, DLPNO-CCSD(T), (RO)-DLPNO pert. Triples
   Tobias Risthaus        : Range-separated hybrids, TD-DFT gradient, RPA, STAB
   Michael Roemelt        : Restricted open shell CIS
   Masaaki Saitow         : Open-shell DLPNO
   Barbara Sandhoefer     : DKH picture change effects
   Kantharuban Sivalingam : CASSCF convergence, NEVPT2, FIC-MRCI
   Georgi Stoychev        : AutoAux
   Boris Wezisla          : Elementary symmetry handling
   Frank Wennmohs         : Technical directorship


 We gratefully acknowledge several colleagues who have allowed us to
 interface, adapt or use parts of their codes:
   Stefan Grimme, W. Hujo, H. Kruse,             : VdW corrections, initial TS optimization,
                  C. Bannwarth                     DFT functionals, gCP, sTDA/sTD-DF
   Ed Valeev                                     : LibInt (2-el integral package), F12 methods
   Garnet Chan, S. Sharma, J. Yang, R. Olivares  : DMRG
   Ulf Ekstrom                                   : XCFun DFT Library
   Mihaly Kallay                                 : mrcc  (arbitrary order and MRCC methods)
   Jiri Pittner, Ondrej Demel                    : Mk-CCSD
   Frank Weinhold                                : gennbo (NPA and NBO analysis)
   Christopher J. Cramer and Donald G. Truhlar   : smd solvation model


 Your calculation uses the libint2 library for the computation of 2-el integrals
 For citations please refer to: http://libint.valeyev.net

 This ORCA versions uses:
   CBLAS   interface :  Fast vector & matrix operations
   LAPACKE interface :  Fast linear algebra routines
   SCALAPACK package :  Parallel linear algebra routines


Your calculation utilizes the atom-pairwise dispersion correction
with the zero-damping scheme (D30)
Cite in your paper:
S.Grimme, J.Antony, S.Ehrlich and H.Krieg, J.Chem.Phys., 132, (2010), 154104 
   

XCFun DFT library Copyright 2009-2010 Ulf Ekstrom and contributors.
See http://admol.org/xcfun for more information. This is free soft-
ware; see the source code for copying conditions. There is ABSOLUTELY
NO WARRANTY; not even for MERCHANTABILITY or FITNESS FOR A PARTICULAR
PURPOSE. For details see the documentation. Scientific users of this 
library should cite U. Ekstrom, L. Visscher, R. Bast, A. J. Thorvald-
sen and K. Ruud; J.Chem.Theor.Comp. 2010, DOI: 10.1021/ct100117s
XCFun Version 0.99 
Your calculation utilizes the basis: 6-31G(d)
   H-He, Li-Ne : W. J. Hehre, R. Ditchfield and J.A. Pople, J. Chem. Phys. 56, 2257 (1972).
                 Note: He and Ne are unpublished basis sets taken from the Gaussian program.
                 Note: Li and B from J. D. Dill and J. A. Pople, J. Chem. Phys. 62, 2921 (1975).
   Na - Ar     : M. M. Francl, W. J. Pietro, W. J. Hehre, J. S. Binkley, M. S. Gordon, 
                 D. J. DeFrees and J. A. Pople, J. Chem. Phys. 77, 3654 (1982).
   K - Zn      : V. A. Rassolov, J. A. Pople, M. A. Ratner, and T. L. Windus, J. Chem. Phys. 109, 1223 (1998).

================================================================================
                                        WARNINGS
                       Please study these warnings very carefully!
================================================================================

Warning: TCutStore was < 0. Adjusted to Thresh (uncritical)

INFO   : the flag for use of LIBINT has been found!

================================================================================
                                       INPUT FILE
================================================================================
NAME = initial27.inp
|  1> ! WB97X-D3 6-31G(d) VerySlowConv
|  2> ! KDIIS NOSOSCF
|  3> %base "Scan_27"
|  4> 
|  5> %scf
|  6> maxiter 999
|  7> end
|  8> 
|  9> * xyz 0 1
| 10> C          3.273194123063   -2.983791020759    0.019435518994
| 11> H          3.301363611047   -2.985859700096   -1.091205957920
| 12> C          1.910219415867   -0.140920136503   -0.017184269945
| 13> H          1.923464171384   -0.117188946610    1.093488846711
| 14> C         -1.233315645613    0.100224400810    0.013793265533
| 15> H         -1.245971305408    0.122388698368   -1.096936672536
| 16> C         -3.012858781578   -2.502338670077   -0.013957341686
| 17> H         -3.038577508790   -2.499997670025    1.096786276121
| 18> C         -1.649853471903   -5.345268755745    0.014898207598
| 19> H         -1.666135786373   -5.365665604833   -1.095818112383
| 20> C          1.493680034026   -5.586280804252   -0.016986118947
| 21> H          1.503401144278   -5.611411790281    1.093686358458
| 22> **                         ****END OF INPUT****
================================================================================

                       ****************************
                       * Single Point Calculation *
                       ****************************

---------------------------------
CARTESIAN COORDINATES (ANGSTROEM)
---------------------------------
  C      3.273194   -2.983791    0.019436
  H      3.301364   -2.985860   -1.091206
  C      1.910219   -0.140920   -0.017184
  H      1.923464   -0.117189    1.093489
  C     -1.233316    0.100224    0.013793
  H     -1.245971    0.122389   -1.096937
  C     -3.012859   -2.502339   -0.013957
  H     -3.038578   -2.499998    1.096786
  C     -1.649853   -5.345269    0.014898
  H     -1.666136   -5.365666   -1.095818
  C      1.493680   -5.586281   -0.016986
  H      1.503401   -5.611412    1.093686

----------------------------
CARTESIAN COORDINATES (A.U.)
----------------------------
  NO LB      ZA    FRAG     MASS         X           Y           Z
   0 C     6.0000    0    12.011    6.185440   -5.638548    0.036728
   1 H     1.0000    0     1.008    6.238673   -5.642457   -2.062080
   2 C     6.0000    0    12.011    3.609792   -0.266300   -0.032474
   3 H     1.0000    0     1.008    3.634821   -0.221455    2.066394
   4 C     6.0000    0    12.011   -2.330629    0.189397    0.026065
   5 H     1.0000    0     1.008   -2.354545    0.231281   -2.072910
   6 C     6.0000    0    12.011   -5.693478   -4.728735   -0.026376
   7 H     1.0000    0     1.008   -5.742079   -4.724311    2.072626
   8 C     6.0000    0    12.011   -3.117771  -10.101094    0.028154
   9 H     1.0000    0     1.008   -3.148540  -10.139639   -2.070796
  10 C     6.0000    0    12.011    2.822646  -10.556541   -0.032099
  11 H     1.0000    0     1.008    2.841016  -10.604032    2.066768

--------------------------------
INTERNAL COORDINATES (ANGSTROEM)
--------------------------------
 C      0   0   0     0.000000000000     0.00000000     0.00000000
 H      1   0   0     1.111000580436     0.00000000     0.00000000
 C      1   2   0     3.152928151092    90.05894661     0.00000000
 H      3   1   2     1.111005564786    90.14295377   182.40903321
 C      3   1   2     3.152922926165   119.99000063    92.29807589
 H      5   3   1     1.111023139783    90.17535062   267.81684663
 C      5   3   1     3.152915857886   119.96774299   357.99988254
 H      7   5   3     1.111043796486    90.14477062    92.10371493
 C      7   5   3     3.152914142333   120.01424904     1.83763317
 H      9   7   5     1.111022901964    90.06123188   267.90262154
 C      9   7   5     3.152920284546   119.98981624   358.14292910
 H     11   9   7     1.110999288257    90.01966832    92.19393062

---------------------------
INTERNAL COORDINATES (A.U.)
---------------------------
 C      0   0   0     0.000000000000     0.00000000     0.00000000
 H      1   0   0     2.099486831652     0.00000000     0.00000000
 C      1   2   0     5.958170725495    90.05894661     0.00000000
 H      3   1   2     2.099496250707    90.14295377   182.40903321
 C      3   1   2     5.958160851813   119.99000063    92.29807589
 H      5   3   1     2.099529462640    90.17535062   267.81684663
 C      5   3   1     5.958147494701   119.96774299   357.99988254
 H      7   5   3     2.099568498150    90.14477062    92.10371493
 C      7   5   3     5.958144252776   120.01424904     1.83763317
 H      9   7   5     2.099529013227    90.06123188   267.90262154
 C      9   7   5     5.958155859877   119.98981624   358.14292910
 H     11   9   7     2.099484389788    90.01966832    92.19393062

---------------------
BASIS SET INFORMATION
---------------------
There are 2 groups of distinct atoms

 Group   1 Type C   : 10s4p1d contracted to 3s2p1d pattern {631/31/1}
 Group   2 Type H   : 4s contracted to 2s pattern {31}

Atom   0C    basis set group =>   1
Atom   1H    basis set group =>   2
Atom   2C    basis set group =>   1
Atom   3H    basis set group =>   2
Atom   4C    basis set group =>   1
Atom   5H    basis set group =>   2
Atom   6C    basis set group =>   1
Atom   7H    basis set group =>   2
Atom   8C    basis set group =>   1
Atom   9H    basis set group =>   2
Atom  10C    basis set group =>   1
Atom  11H    basis set group =>   2
------------------------------------------------------------------------------
                           ORCA GTO INTEGRAL CALCULATION
------------------------------------------------------------------------------

                         BASIS SET STATISTICS AND STARTUP INFO

 # of primitive gaussian shells          ...  114
 # of primitive gaussian functions       ...  186
 # of contracted shells                  ...   48
 # of contracted basis functions         ...   96
 Highest angular momentum                ...    2
 Maximum contraction depth               ...    6
 Integral package used                   ... LIBINT
 Integral threshhold            Thresh   ...  1.000e-10
 Primitive cut-off              TCut     ...  1.000e-11


------------------------------ INTEGRAL EVALUATION ----------------------------


 * One electron integrals 
 Pre-screening matrix                    ... done
 Shell pair data                         ... done (   0.001 sec)

-------------------------------------------------------------------------------
                                 ORCA SCF
-------------------------------------------------------------------------------

------------
SCF SETTINGS
------------
Hamiltonian:
 Density Functional     Method          .... DFT(GTOs)
 Exchange Functional    Exchange        .... WB97X-D3
 Correlation Functional Correlation     .... WB97X-D3
 Gradients option       PostSCFGGA      .... off
 Hybrid DFT is turned on
   Fraction HF Exchange ScalHFX         ....  0.195728
   Scaling of DF-GGA-X  ScalDFX         ....  0.000000
   Scaling of DF-GGA-C  ScalDFC         ....  1.000000
   Scaling of DF-LDA-C  ScalLDAC        ....  1.000000
   Perturbative correction              ....  0.000000
 Long-range corrected/Screened/Range-Separated Hybrid DFT is turned on
   Amount of maximum screened exact exchange              ....  0.804272
   Range separation parameter mu (erf(mu*r12)/r12)        ....  0.250000


General Settings:
 Integral files         IntName         .... Scan_27
 Hartree-Fock type      HFTyp           .... RHF
 Total Charge           Charge          ....    0
 Multiplicity           Mult            ....    1
 Number of Electrons    NEL             ....   42
 Basis Dimension        Dim             ....   96
 Nuclear Repulsion      ENuc            ....    106.1964500448 Eh

Convergence Acceleration:
 DIIS                   CNVDIIS         .... on
   Start iteration      DIISMaxIt       ....     0
   Startup error        DIISStart       ....  0.200000
   # of expansion vecs  DIISMaxEq       ....     5
   Bias factor          DIISBfac        ....   1.050
   Max. coefficient     DIISMaxC        ....  10.000
 Newton-Raphson         CNVNR           .... off
 SOSCF                  CNVSOSCF        .... off
 Level Shifting         CNVShift        .... off
 Zerner damping         CNVZerner       .... off
 Static damping         CNVDamp         .... off
 Fernandez-Rico         CNVRico         .... off

SCF Procedure:
 Maximum # iterations   MaxIter         ....   999
 SCF integral mode      SCFMode         .... Direct
   Integral package                     .... LIBINT
 Reset frequeny         DirectResetFreq ....    20
 Integral Threshold     Thresh          ....  1.000e-10 Eh
 Primitive CutOff       TCut            ....  1.000e-11 Eh

Convergence Tolerance:
 Convergence Check Mode ConvCheckMode   .... All-Criteria
 Convergence forced     ConvForced      .... 0
 Energy Change          TolE            ....  1.000e-06 Eh
 Max Density Change     TolMaxP         ....  1.000e-05
 RMS Density Change     TolRMSP         ....  1.000e-06
 DIIS Error             TolErr          ....  1.000e-06


Diagonalization of the overlap matrix:
Smallest eigenvalue                        ... 4.152e-02
Time for diagonalization                   ...    0.002 sec
Threshold for overlap eigenvalues          ... 1.000e-08
Number of eigenvalues below threshold      ... 0
Time for construction of square roots      ...    0.008 sec
Total time needed                          ...    0.010 sec

-------------------
DFT GRID GENERATION
-------------------

General Integration Accuracy     IntAcc      ...  4.340
Radial Grid Type                 RadialGrid  ... Gauss-Chebyshev
Angular Grid (max. acc.)         AngularGrid ... Lebedev-110
Angular grid pruning method      GridPruning ... 3 (G Style)
Weight generation scheme         WeightScheme... Becke
Basis function cutoff            BFCut       ...    1.0000e-10
Integration weight cutoff        WCut        ...    1.0000e-14
Grids for H and He will be reduced by one unit

# of grid points (after initial pruning)     ...  14700 (   0.0 sec)
# of grid points (after weights+screening)   ...  14147 (   0.0 sec)
nearest neighbour list constructed           ...    0.0 sec
Grid point re-assignment to atoms done       ...    0.0 sec
Grid point division into batches done        ...    0.0 sec
Reduced shell lists constructed in    0.2 sec

Total number of grid points                  ...    14147
Total number of batches                      ...      228
Average number of points per batch           ...       62
Average number of grid points per atom       ...     1179
Average number of shells per batch           ...    26.22 (54.62%)
Average number of basis functions per batch  ...    51.30 (53.44%)
Average number of large shells per batch     ...    16.42 (62.62%)
Average number of large basis fcns per batch ...    32.33 (63.02%)
Maximum spatial batch extension              ...  21.32, 25.60, 19.10 au
Average spatial batch extension              ...   4.92,  4.86,  4.46 au

Time for grid setup =    0.236 sec

------------------------------
INITIAL GUESS: MODEL POTENTIAL
------------------------------
Loading Hartree-Fock densities                     ... done
Calculating cut-offs                               ... done
Setting up the integral package                    ... done
Initializing the effective Hamiltonian             ... done
Starting the Coulomb interaction                   ... done (   0.1 sec)
Reading the grid                                   ... done
Mapping shells                                     ... done
Starting the XC term evaluation                    ... done (   0.1 sec)
  promolecular density results
     # of electrons  =     41.998256565
     EX              =    -31.552318865
     EC              =     -1.148352578
     EX+EC           =    -32.700671443
Transforming the Hamiltonian                       ... done (   0.0 sec)
Diagonalizing the Hamiltonian                      ... done (   0.0 sec)
Back transforming the eigenvectors                 ... done (   0.0 sec)
Now organizing SCF variables                       ... done
                      ------------------
                      INITIAL GUESS DONE (   0.5 sec)
                      ------------------
--------------
SCF ITERATIONS
--------------
ITER       Energy         Delta-E        Max-DP      RMS-DP      [F,P]   Gradient Norm
               ***  Starting incremental Fock matrix formation  ***
                             ****Resetting KDIIS****
                             ****Turning on KDIIS(Cayley)****
  0   -230.6043359120   0.000000000000 0.00392884  0.00027480  0.0262066   0.025212313
  1   -230.6083687117  -0.004032799731 0.00786778  0.00065672  0.0235510   0.022848168
  2   -230.6166649123  -0.008296200602 0.01816850  0.00143187  0.0192880   0.018449680
  3   -230.6292554628  -0.012590550471 0.02863147  0.00256832  0.0112803   0.011095569
  4   -230.6371307851  -0.007875322280 0.00284106  0.00020463  0.0013186   0.001112761
  5   -230.6372137545  -0.000082969437 0.00045107  0.00002831  0.0002525   0.000153314
  6   -230.6372160452  -0.000002290737 0.00026685  0.00001382  0.0001083   0.000075930
                          ***Energy convergence achieved***
  7   -230.6372166603  -0.000000615041 0.00014124  0.00000892  0.0000708   0.000047696
  8   -230.6372169449  -0.000000284609 0.00010008  0.00000691  0.0000663   0.000027065
  9   -230.6372171138  -0.000000168934 0.00010845  0.00000541  0.0000508   0.000019714
 10   -230.6372172256  -0.000000111830 0.00011272  0.00000701  0.0000493   0.000018429
 11   -230.6372173538  -0.000000128204 0.00015704  0.00000905  0.0000344   0.000015661
 12   -230.6372174906  -0.000000136762 0.00019299  0.00001120  0.0000276   0.000013939
 13   -230.6372176171  -0.000000126526 0.00015444  0.00000824  0.0000180   0.000010545
 14   -230.6372176799  -0.000000062730 0.00014592  0.00000798  0.0000120   0.000009210
 15   -230.6372177172  -0.000000037310 0.00010122  0.00000510  0.0000098   0.000005985

            ***Energy convergence in two consecutive cycles with***
                    ***'reasonable' density convergence***
                       *** signaling convergence ***

                    *** KDIIS BlockDiag ( 0.001 sec) ***

               *****************************************************
               *                     SUCCESS                       *
               *           SCF CONVERGED AFTER  16 CYCLES          *
               *****************************************************

Setting up the final grid:

General Integration Accuracy     IntAcc      ...  4.670
Radial Grid Type                 RadialGrid  ... Gauss-Chebyshev
Angular Grid (max. acc.)         AngularGrid ... Lebedev-302
Angular grid pruning method      GridPruning ... 3 (G Style)
Weight generation scheme         WeightScheme... Becke
Basis function cutoff            BFCut       ...    1.0000e-10
Integration weight cutoff        WCut        ...    1.0000e-14
Grids for H and He will be reduced by one unit

# of grid points (after initial pruning)     ...  57636 (   0.0 sec)
# of grid points (after weights+screening)   ...  55477 (   0.1 sec)
nearest neighbour list constructed           ...    0.0 sec
Grid point re-assignment to atoms done       ...    0.0 sec
Grid point division into batches done        ...    0.2 sec
Reduced shell lists constructed in    0.7 sec

Total number of grid points                  ...    55477
Total number of batches                      ...      870
Average number of points per batch           ...       63
Average number of grid points per atom       ...     4623
Average number of shells per batch           ...    23.22 (48.38%)
Average number of basis functions per batch  ...    45.36 (47.25%)
Average number of large shells per batch     ...    14.07 (60.60%)
Average number of large basis fcns per batch ...    27.45 (60.52%)
Maximum spatial batch extension              ...  22.17, 21.77, 18.53 au
Average spatial batch extension              ...   3.14,  3.23,  2.88 au

Final grid set up in    0.8 sec
Final integration                            ... done (   0.6 sec)
Change in XC energy                          ...     0.000528117
Integrated number of electrons               ...    42.000008355
Previous integrated no of electrons          ...    42.006296179

----------------
TOTAL SCF ENERGY
----------------

Total Energy       :         -230.63668961 Eh           -6275.94339 eV

Components:
Nuclear Repulsion  :          106.19645004 Eh            2889.75232 eV
Electronic Energy  :         -336.83313966 Eh           -9165.69571 eV
One Electron Energy:         -518.05471700 Eh          -14096.98553 eV
Two Electron Energy:          181.22157734 Eh            4931.28982 eV

Virial components:
Potential Energy   :         -459.53082655 Eh          -12504.46951 eV
Kinetic Energy     :          228.89413693 Eh            6228.52612 eV
Virial Ratio       :            2.00761292


DFT components:
N(Alpha)           :       21.000004177615 electrons
N(Beta)            :       21.000004177615 electrons
N(Total)           :       42.000008355229 electrons
E(XC)              :      -22.731626996520 Eh       

---------------
SCF CONVERGENCE
---------------

  Last Energy change         ...   -1.1282e-08  Tolerance :   1.0000e-06
  Last MAX-Density change    ...    3.7741e-05  Tolerance :   1.0000e-05
  Last RMS-Density change    ...    2.1640e-06  Tolerance :   1.0000e-06
  Last DIIS Error            ...    6.8304e-06  Tolerance :   1.0000e-06

             **** THE GBW FILE WAS UPDATED (Scan_27.gbw) ****
             **** DENSITY FILE WAS UPDATED (Scan_27.scfp.tmp) ****
             **** ENERGY FILE WAS UPDATED (Scan_27.en.tmp) ****
----------------
ORBITAL ENERGIES
----------------

  NO   OCC          E(Eh)            E(eV) 
   0   2.0000     -10.408231      -283.2224 
   1   2.0000     -10.408230      -283.2223 
   2   2.0000     -10.408201      -283.2215 
   3   2.0000     -10.408193      -283.2213 
   4   2.0000     -10.407846      -283.2119 
   5   2.0000     -10.407815      -283.2110 
   6   2.0000      -0.751663       -20.4538 
   7   2.0000      -0.746735       -20.3197 
   8   2.0000      -0.746622       -20.3166 
   9   2.0000      -0.735569       -20.0159 
  10   2.0000      -0.735462       -20.0129 
  11   2.0000      -0.729452       -19.8494 
  12   2.0000      -0.409525       -11.1437 
  13   2.0000      -0.409400       -11.1403 
  14   2.0000      -0.408097       -11.1049 
  15   2.0000      -0.407906       -11.0997 
  16   2.0000      -0.407782       -11.0963 
  17   2.0000      -0.406116       -11.0510 
  18   2.0000      -0.299264        -8.1434 
  19   2.0000      -0.253148        -6.8885 
  20   2.0000      -0.253065        -6.8863 
  21   0.0000      -0.083306        -2.2669 
  22   0.0000      -0.082819        -2.2536 
  23   0.0000      -0.060123        -1.6360 
  24   0.0000      -0.031706        -0.8628 
  25   0.0000      -0.031562        -0.8588 
  26   0.0000      -0.018638        -0.5072 
  27   0.0000      -0.018318        -0.4985 
  28   0.0000      -0.016342        -0.4447 
  29   0.0000      -0.010153        -0.2763 
  30   0.0000       0.210179         5.7193 
  31   0.0000       0.219583         5.9752 
  32   0.0000       0.219650         5.9770 
  33   0.0000       0.238133         6.4799 
  34   0.0000       0.238174         6.4810 
  35   0.0000       0.247189         6.7264 
  36   0.0000       0.571233        15.5440 
  37   0.0000       0.588384        16.0107 
  38   0.0000       0.591001        16.0820 
  39   0.0000       0.591146        16.0859 
  40   0.0000       0.593870        16.1600 
  41   0.0000       0.594135        16.1672 
  42   0.0000       0.599399        16.3105 
  43   0.0000       0.625895        17.0315 
  44   0.0000       0.626145        17.0383 
  45   0.0000       0.649703        17.6793 
  46   0.0000       0.649777        17.6813 
  47   0.0000       0.675862        18.3911 
  48   0.0000       0.684072        18.6146 
  49   0.0000       0.684326        18.6215 
  50   0.0000       0.691861        18.8265 
  51   0.0000       0.691885        18.8271 
  52   0.0000       0.704396        19.1676 
  53   0.0000       0.734270        19.9805 
  54   0.0000       0.887604        24.1529 
  55   0.0000       0.905951        24.6522 
  56   0.0000       0.906143        24.6574 
  57   0.0000       0.942905        25.6577 
  58   0.0000       0.942963        25.6593 
  59   0.0000       0.967597        26.3296 
  60   0.0000       0.967774        26.3345 
  61   0.0000       0.973734        26.4967 
  62   0.0000       0.973818        26.4989 
  63   0.0000       1.024786        27.8858 
  64   0.0000       1.024961        27.8906 
  65   0.0000       1.092167        29.7194 
  66   0.0000       1.748983        47.5923 
  67   0.0000       1.749069        47.5946 
  68   0.0000       1.749238        47.5992 
  69   0.0000       1.749270        47.6001 
  70   0.0000       1.749543        47.6075 
  71   0.0000       1.749801        47.6145 
  72   0.0000       1.762713        47.9659 
  73   0.0000       1.764176        48.0057 
  74   0.0000       1.764242        48.0075 
  75   0.0000       1.765207        48.0337 
  76   0.0000       1.765370        48.0382 
  77   0.0000       1.765398        48.0389 
  78   0.0000       1.778370        48.3919 
  79   0.0000       1.778541        48.3966 
  80   0.0000       1.780377        48.4465 
  81   0.0000       1.780459        48.4488 
  82   0.0000       1.782106        48.4936 
  83   0.0000       1.783390        48.5285 
  84   0.0000       1.785215        48.5782 
  85   0.0000       1.789544        48.6960 
  86   0.0000       1.789916        48.7061 
  87   0.0000       1.796931        48.8970 
  88   0.0000       1.798181        48.9310 
  89   0.0000       1.798737        48.9461 
  90   0.0000       2.190855        59.6162 
  91   0.0000       2.198301        59.8188 
  92   0.0000       2.198414        59.8219 
  93   0.0000       2.219049        60.3834 
  94   0.0000       2.219121        60.3854 
  95   0.0000       2.232749        60.7562 

                    ********************************
                    * MULLIKEN POPULATION ANALYSIS *
                    ********************************

-----------------------
MULLIKEN ATOMIC CHARGES
-----------------------
   0 C :   -0.173989
   1 H :    0.173665
   2 C :   -0.173616
   3 H :    0.173871
   4 C :   -0.173773
   5 H :    0.173888
   6 C :   -0.174009
   7 H :    0.173584
   8 C :   -0.173601
   9 H :    0.173838
  10 C :   -0.173791
  11 H :    0.173934
Sum of atomic charges:   -0.0000000

--------------------------------
MULLIKEN REDUCED ORBITAL CHARGES
--------------------------------
  0 C s       :     3.911778  s :     3.911778
      pz      :     1.236166  p :     2.247433
      px      :     0.033129
      py      :     0.978138
      dz2     :     0.014033  d :     0.014778
      dxz     :     0.000055
      dyz     :     0.000465
      dx2y2   :     0.000109
      dxy     :     0.000116
  1 H s       :     0.826335  s :     0.826335
  2 C s       :     3.911589  s :     3.911589
      pz      :     1.236684  p :     2.247256
      px      :     0.680326
      py      :     0.330246
      dz2     :     0.014031  d :     0.014772
      dxz     :     0.000330
      dyz     :     0.000182
      dx2y2   :     0.000118
      dxy     :     0.000111
  3 H s       :     0.826129  s :     0.826129
  4 C s       :     3.911588  s :     3.911588
      pz      :     1.236752  p :     2.247405
      px      :     0.806932
      py      :     0.203721
      dz2     :     0.014042  d :     0.014781
      dxz     :     0.000388
      dyz     :     0.000121
      dx2y2   :     0.000115
      dxy     :     0.000114
  5 H s       :     0.826112  s :     0.826112
  6 C s       :     3.911750  s :     3.911750
      pz      :     1.236199  p :     2.247482
      px      :     0.032977
      py      :     0.978307
      dz2     :     0.014039  d :     0.014777
      dxz     :     0.000050
      dyz     :     0.000462
      dx2y2   :     0.000109
      dxy     :     0.000117
  7 H s       :     0.826416  s :     0.826416
  8 C s       :     3.911575  s :     3.911575
      pz      :     1.236704  p :     2.247255
      px      :     0.680648
      py      :     0.329903
      dz2     :     0.014033  d :     0.014771
      dxz     :     0.000333
      dyz     :     0.000176
      dx2y2   :     0.000117
      dxy     :     0.000112
  9 H s       :     0.826162  s :     0.826162
 10 C s       :     3.911606  s :     3.911606
      pz      :     1.236732  p :     2.247403
      px      :     0.806772
      py      :     0.203899
      dz2     :     0.014038  d :     0.014781
      dxz     :     0.000386
      dyz     :     0.000128
      dx2y2   :     0.000116
      dxy     :     0.000113
 11 H s       :     0.826066  s :     0.826066


                     *******************************
                     * LOEWDIN POPULATION ANALYSIS *
                     *******************************

----------------------
LOEWDIN ATOMIC CHARGES
----------------------
   0 C :   -0.120293
   1 H :    0.119981
   2 C :   -0.119949
   3 H :    0.120173
   4 C :   -0.120017
   5 H :    0.120139
   6 C :   -0.120329
   7 H :    0.119941
   8 C :   -0.119942
   9 H :    0.120158
  10 C :   -0.120024
  11 H :    0.120161

-------------------------------
LOEWDIN REDUCED ORBITAL CHARGES
-------------------------------
  0 C s       :     3.743379  s :     3.743379
      pz      :     1.340887  p :     2.356967
      px      :     0.035434
      py      :     0.980645
      dz2     :     0.019150  d :     0.019947
      dxz     :     0.000063
      dyz     :     0.000463
      dx2y2   :     0.000125
      dxy     :     0.000145
  1 H s       :     0.880019  s :     0.880019
  2 C s       :     3.743348  s :     3.743348
      pz      :     1.341251  p :     2.356666
      px      :     0.682773
      py      :     0.332642
      dz2     :     0.019144  d :     0.019935
      dxz     :     0.000330
      dyz     :     0.000188
      dx2y2   :     0.000145
      dxy     :     0.000128
  3 H s       :     0.879827  s :     0.879827
  4 C s       :     3.743325  s :     3.743325
      pz      :     1.341285  p :     2.356748
      px      :     0.809393
      py      :     0.206070
      dz2     :     0.019155  d :     0.019943
      dxz     :     0.000388
      dyz     :     0.000126
      dx2y2   :     0.000139
      dxy     :     0.000135
  5 H s       :     0.879861  s :     0.879861
  6 C s       :     3.743367  s :     3.743367
      pz      :     1.340939  p :     2.357017
      px      :     0.035271
      py      :     0.980806
      dz2     :     0.019158  d :     0.019946
      dxz     :     0.000056
      dyz     :     0.000460
      dx2y2   :     0.000125
      dxy     :     0.000146
  7 H s       :     0.880059  s :     0.880059
  8 C s       :     3.743342  s :     3.743342
      pz      :     1.341277  p :     2.356665
      px      :     0.683092
      py      :     0.332296
      dz2     :     0.019147  d :     0.019935
      dxz     :     0.000335
      dyz     :     0.000179
      dx2y2   :     0.000144
      dxy     :     0.000129
  9 H s       :     0.879842  s :     0.879842
 10 C s       :     3.743333  s :     3.743333
      pz      :     1.341255  p :     2.356747
      px      :     0.809238
      py      :     0.206253
      dz2     :     0.019151  d :     0.019944
      dxz     :     0.000385
      dyz     :     0.000134
      dx2y2   :     0.000140
      dxy     :     0.000134
 11 H s       :     0.879839  s :     0.879839


                      *****************************
                      * MAYER POPULATION ANALYSIS *
                      *****************************

  NA   - Mulliken gross atomic population
  ZA   - Total nuclear charge
  QA   - Mulliken gross atomic charge
  VA   - Mayer's total valence
  BVA  - Mayer's bonded valence
  FA   - Mayer's free valence

  ATOM       NA         ZA         QA         VA         BVA        FA
  0 C      6.1740     6.0000    -0.1740     1.9910     1.9910    -0.0000
  1 H      0.8263     1.0000     0.1737     0.9069     0.9069    -0.0000
  2 C      6.1736     6.0000    -0.1736     1.9922     1.9922     0.0000
  3 H      0.8261     1.0000     0.1739     0.9070     0.9070     0.0000
  4 C      6.1738     6.0000    -0.1738     1.9921     1.9921     0.0000
  5 H      0.8261     1.0000     0.1739     0.9070     0.9070     0.0000
  6 C      6.1740     6.0000    -0.1740     1.9911     1.9911     0.0000
  7 H      0.8264     1.0000     0.1736     0.9069     0.9069     0.0000
  8 C      6.1736     6.0000    -0.1736     1.9922     1.9922    -0.0000
  9 H      0.8262     1.0000     0.1738     0.9070     0.9070    -0.0000
 10 C      6.1738     6.0000    -0.1738     1.9920     1.9920    -0.0000
 11 H      0.8261     1.0000     0.1739     0.9070     0.9070    -0.0000

  Mayer bond orders larger than 0.1
B(  0-C ,  1-H ) :   0.9042 B(  0-C ,  2-C ) :   0.4682 B(  0-C , 10-C ) :   0.4676 
B(  2-C ,  3-H ) :   0.9042 B(  2-C ,  4-C ) :   0.4693 B(  4-C ,  5-H ) :   0.9042 
B(  4-C ,  6-C ) :   0.4678 B(  6-C ,  7-H ) :   0.9042 B(  6-C ,  8-C ) :   0.4681 
B(  8-C ,  9-H ) :   0.9042 B(  8-C , 10-C ) :   0.4694 B( 10-C , 11-H ) :   0.9042 


-------
TIMINGS
-------

Total SCF time: 0 days 0 hours 0 min 23 sec 

Total time                  ....      23.066 sec
Sum of individual times     ....      22.760 sec  ( 98.7%)

Fock matrix formation       ....      21.346 sec  ( 92.5%)
  XC integration            ....       3.445 sec  ( 16.1% of F)
    Basis function eval.    ....       1.609 sec  ( 46.7% of XC)
    Density eval.           ....       0.212 sec  (  6.1% of XC)
    XC-Functional eval.     ....       0.924 sec  ( 26.8% of XC)
    XC-Potential eval.      ....       0.196 sec  (  5.7% of XC)
Diagonalization             ....       0.046 sec  (  0.2%)
Density matrix formation    ....       0.002 sec  (  0.0%)
Population analysis         ....       0.013 sec  (  0.1%)
Initial guess               ....       0.292 sec  (  1.3%)
Orbital Transformation      ....       0.000 sec  (  0.0%)
Orbital Orthonormalization  ....       0.000 sec  (  0.0%)
DIIS solution               ....       0.000 sec  (  0.0%)
Grid generation             ....       1.060 sec  (  4.6%)


-------------------------------------------------------------------------------
                          DFT DISPERSION CORRECTION                            
                                                                               
                              DFTD3 V3.1  Rev 1                                
                              USING zero damping                               
-------------------------------------------------------------------------------
The omegaB97X-D3 functional is recognized. Fit by Chai et al.
Active option DFTDOPT                   ...         3   

molecular C6(AA) [au] = 2490.794377 


            DFT-D V3
 parameters
 s6 scaling factor         :     1.0000 
 rs6 scaling factor        :     1.2810 
 s8 scaling factor         :     1.0000 
 rs8 scaling factor        :     1.0940 
 Damping factor alpha6     :    14.0000 
 Damping factor alpha8     :    16.0000 
 ad hoc parameters k1-k3   :    16.0000     1.3333    -4.0000 

 Edisp/kcal,au: -1.752354454392  -0.002792554280 
 E6   /kcal   :  -0.768308477 
 E8   /kcal   :  -0.984045977 
 % E8         :  56.155646754 

-------------------------   ----------------
Dispersion correction           -0.002792554
-------------------------   ----------------


-------------------------   --------------------
FINAL SINGLE POINT ENERGY      -230.639482165524
-------------------------   --------------------


                            ***************************************
                            *     ORCA property calculations      *
                            ***************************************

                                    ---------------------
                                    Active property flags
                                    ---------------------
   (+) Dipole Moment


------------------------------------------------------------------------------
                       ORCA ELECTRIC PROPERTIES CALCULATION
------------------------------------------------------------------------------

Dipole Moment Calculation                       ... on
Quadrupole Moment Calculation                   ... off
Polarizability Calculation                      ... off
GBWName                                         ... Scan_27.gbw
Electron density file                           ... Scan_27.scfp.tmp

-------------
DIPOLE MOMENT
-------------
                                X             Y             Z
Electronic contribution:      0.00183      -0.00030      -0.00002
Nuclear contribution   :     -0.00305       0.00055       0.00000
                        -----------------------------------------
Total Dipole Moment    :     -0.00122       0.00025      -0.00002
                        -----------------------------------------
Magnitude (a.u.)       :      0.00125
Magnitude (Debye)      :      0.00317


Timings for individual modules:

Sum of individual times         ...       23.439 sec (=   0.391 min)
GTO integral calculation        ...        0.348 sec (=   0.006 min)   1.5 %
SCF iterations                  ...       23.091 sec (=   0.385 min)  98.5 %
                             ****ORCA TERMINATED NORMALLY****
TOTAL RUN TIME: 0 days 0 hours 0 minutes 23 seconds 792 msec
