
                                 *****************
                                 * O   R   C   A *
                                 *****************

           --- An Ab Initio, DFT and Semiempirical electronic structure package ---

                  #######################################################
                  #                        -***-                        #
                  #  Department of molecular theory and spectroscopy    #
                  #              Directorship: Frank Neese              #
                  # Max Planck Institute for Chemical Energy Conversion #
                  #                  D-45470 Muelheim/Ruhr              #
                  #                       Germany                       #
                  #                                                     #
                  #                  All rights reserved                #
                  #                        -***-                        #
                  #######################################################


                         Program Version 4.0.0.2 - RELEASE -


 With contributions from (in alphabetic order):
   Daniel Aravena         : Magnetic Properties
   Michael Atanasov       : Ab Initio Ligand Field Theory
   Ute Becker             : Parallelization
   Martin Brehm           : Molecular dynamics
   Dmytro Bykov           : SCF Hessian
   Vijay G. Chilkuri      : MRCI spin determinant printing
   Dipayan Datta          : RHF DLPNO-CCSD density
   Achintya Kumar Dutta   : EOM-CC, STEOM-CC
   Dmitry Ganyushin       : Spin-Orbit,Spin-Spin,Magnetic field MRCI
   Yang Guo               : DLPNO-NEVPT2, CIM, IAO-localization
   Andreas Hansen         : Spin unrestricted coupled pair/coupled cluster methods
   Lee Huntington         : MR-EOM, pCC
   Robert Izsak           : Overlap fitted RIJCOSX, COSX-SCS-MP3, EOM
   Christian Kollmar      : KDIIS, OOCD, Brueckner-CCSD(T), CCSD density
   Simone Kossmann        : Meta GGA functionals, TD-DFT gradient, OOMP2, MP2 Hessian
   Martin Krupicka        : AUTO-CI
   Dagmar Lenk            : GEPOL surface
   Dimitrios Liakos       : Extrapolation schemes; parallel MDCI
   Dimitrios Manganas     : ROCIS; embedding schemes
   Dimitrios Pantazis     : SARC Basis sets
   Taras Petrenko         : DFT Hessian,TD-DFT gradient, ASA, ECA, R-Raman, ABS, FL, XAS/XES, NRVS
   Peter Pinski           : DLPNO-MP2
   Christoph Reimann      : Effective Core Potentials
   Marius Retegan         : Local ZFS, SOC
   Christoph Riplinger    : Optimizer, TS searches, QM/MM, DLPNO-CCSD(T), (RO)-DLPNO pert. Triples
   Tobias Risthaus        : Range-separated hybrids, TD-DFT gradient, RPA, STAB
   Michael Roemelt        : Restricted open shell CIS
   Masaaki Saitow         : Open-shell DLPNO
   Barbara Sandhoefer     : DKH picture change effects
   Kantharuban Sivalingam : CASSCF convergence, NEVPT2, FIC-MRCI
   Georgi Stoychev        : AutoAux
   Boris Wezisla          : Elementary symmetry handling
   Frank Wennmohs         : Technical directorship


 We gratefully acknowledge several colleagues who have allowed us to
 interface, adapt or use parts of their codes:
   Stefan Grimme, W. Hujo, H. Kruse,             : VdW corrections, initial TS optimization,
                  C. Bannwarth                     DFT functionals, gCP, sTDA/sTD-DF
   Ed Valeev                                     : LibInt (2-el integral package), F12 methods
   Garnet Chan, S. Sharma, J. Yang, R. Olivares  : DMRG
   Ulf Ekstrom                                   : XCFun DFT Library
   Mihaly Kallay                                 : mrcc  (arbitrary order and MRCC methods)
   Jiri Pittner, Ondrej Demel                    : Mk-CCSD
   Frank Weinhold                                : gennbo (NPA and NBO analysis)
   Christopher J. Cramer and Donald G. Truhlar   : smd solvation model


 Your calculation uses the libint2 library for the computation of 2-el integrals
 For citations please refer to: http://libint.valeyev.net

 This ORCA versions uses:
   CBLAS   interface :  Fast vector & matrix operations
   LAPACKE interface :  Fast linear algebra routines
   SCALAPACK package :  Parallel linear algebra routines


Your calculation utilizes the atom-pairwise dispersion correction
with the zero-damping scheme (D30)
Cite in your paper:
S.Grimme, J.Antony, S.Ehrlich and H.Krieg, J.Chem.Phys., 132, (2010), 154104 
   

XCFun DFT library Copyright 2009-2010 Ulf Ekstrom and contributors.
See http://admol.org/xcfun for more information. This is free soft-
ware; see the source code for copying conditions. There is ABSOLUTELY
NO WARRANTY; not even for MERCHANTABILITY or FITNESS FOR A PARTICULAR
PURPOSE. For details see the documentation. Scientific users of this 
library should cite U. Ekstrom, L. Visscher, R. Bast, A. J. Thorvald-
sen and K. Ruud; J.Chem.Theor.Comp. 2010, DOI: 10.1021/ct100117s
XCFun Version 0.99 
Your calculation utilizes the basis: 6-31G(d)
   H-He, Li-Ne : W. J. Hehre, R. Ditchfield and J.A. Pople, J. Chem. Phys. 56, 2257 (1972).
                 Note: He and Ne are unpublished basis sets taken from the Gaussian program.
                 Note: Li and B from J. D. Dill and J. A. Pople, J. Chem. Phys. 62, 2921 (1975).
   Na - Ar     : M. M. Francl, W. J. Pietro, W. J. Hehre, J. S. Binkley, M. S. Gordon, 
                 D. J. DeFrees and J. A. Pople, J. Chem. Phys. 77, 3654 (1982).
   K - Zn      : V. A. Rassolov, J. A. Pople, M. A. Ratner, and T. L. Windus, J. Chem. Phys. 109, 1223 (1998).

================================================================================
                                        WARNINGS
                       Please study these warnings very carefully!
================================================================================

Warning: TCutStore was < 0. Adjusted to Thresh (uncritical)

INFO   : the flag for use of LIBINT has been found!

================================================================================
                                       INPUT FILE
================================================================================
NAME = initial28.inp
|  1> ! WB97X-D3 6-31G(d) VerySlowConv
|  2> ! KDIIS NOSOSCF
|  3> %base "Scan_28"
|  4> 
|  5> %scf
|  6> maxiter 999
|  7> end
|  8> 
|  9> * xyz 0 1
| 10> C          3.377079936170   -2.991776967787    0.028383302428
| 11> H          3.358451170937   -2.990181423459   -1.082816026718
| 12> C          1.969172779981   -0.055142717326   -0.025967086114
| 13> H          1.955591891826   -0.069672447453    1.085211531120
| 14> C         -1.278064525692    0.194045287534    0.022317213889
| 15> H         -1.271119379471    0.174094378521   -1.088838639463
| 16> C         -3.116287026420   -2.494432546167   -0.022451824364
| 17> H         -3.095888125789   -2.495584311721    1.088717660376
| 18> C         -1.708316976572   -5.431180493854    0.023488074792
| 19> H         -1.698881641927   -5.412880207996   -1.087678232321
| 20> C          1.538923381700   -5.680125841488   -0.025770333798
| 21> H          1.527948515260   -5.663272708808    1.085404360172
| 22> **                         ****END OF INPUT****
================================================================================

                       ****************************
                       * Single Point Calculation *
                       ****************************

---------------------------------
CARTESIAN COORDINATES (ANGSTROEM)
---------------------------------
  C      3.377080   -2.991777    0.028383
  H      3.358451   -2.990181   -1.082816
  C      1.969173   -0.055143   -0.025967
  H      1.955592   -0.069672    1.085212
  C     -1.278065    0.194045    0.022317
  H     -1.271119    0.174094   -1.088839
  C     -3.116287   -2.494433   -0.022452
  H     -3.095888   -2.495584    1.088718
  C     -1.708317   -5.431180    0.023488
  H     -1.698882   -5.412880   -1.087678
  C      1.538923   -5.680126   -0.025770
  H      1.527949   -5.663273    1.085404

----------------------------
CARTESIAN COORDINATES (A.U.)
----------------------------
  NO LB      ZA    FRAG     MASS         X           Y           Z
   0 C     6.0000    0    12.011    6.381756   -5.653639    0.053637
   1 H     1.0000    0     1.008    6.346553   -5.650624   -2.046226
   2 C     6.0000    0    12.011    3.721197   -0.104205   -0.049071
   3 H     1.0000    0     1.008    3.695533   -0.131662    2.050753
   4 C     6.0000    0    12.011   -2.415192    0.366692    0.042173
   5 H     1.0000    0     1.008   -2.402068    0.328991   -2.057607
   6 C     6.0000    0    12.011   -5.888929   -4.713794   -0.042428
   7 H     1.0000    0     1.008   -5.850381   -4.715971    2.057378
   8 C     6.0000    0    12.011   -3.228251  -10.263444    0.044386
   9 H     1.0000    0     1.008   -3.210421  -10.228861   -2.055414
  10 C     6.0000    0    12.011    2.908144  -10.733882   -0.048699
  11 H     1.0000    0     1.008    2.887404  -10.702034    2.051117

--------------------------------
INTERNAL COORDINATES (ANGSTROEM)
--------------------------------
 C      0   0   0     0.000000000000     0.00000000     0.00000000
 H      1   0   0     1.111356615021     0.00000000     0.00000000
 C      1   2   0     3.257142497061    88.55461479     0.00000000
 H      3   1   2     1.111356591279    88.67124533   178.21376206
 C      3   1   2     3.257142329519   119.97798904    90.70168122
 H      5   3   1     1.111356650344    88.71502836   269.40440468
 C      5   3   1     3.257142811003   119.95359965   357.00726563
 H      7   5   3     1.111357307767    88.66797931    90.53248196
 C      7   5   3     3.257142711618   120.00419932     2.82260787
 H      9   7   5     1.111357047967    88.55147557   269.47049819
 C      9   7   5     3.257141403335   119.97728289   357.15692959
 H     11   9   7     1.111356682750    88.50298120    90.60967264

---------------------------
INTERNAL COORDINATES (A.U.)
---------------------------
 C      0   0   0     0.000000000000     0.00000000     0.00000000
 H      1   0   0     2.100159639511     0.00000000     0.00000000
 C      1   2   0     6.155107298602    88.55461479     0.00000000
 H      3   1   2     2.100159594645    88.67124533   178.21376206
 C      3   1   2     6.155106981994   119.97798904    90.70168122
 H      5   3   1     2.100159706263    88.71502836   269.40440468
 C      5   3   1     6.155107891867   119.95359965   357.00726563
 H      7   5   3     2.100160948613    88.66797931    90.53248196
 C      7   5   3     6.155107704056   120.00419932     2.82260787
 H      9   7   5     2.100160457660    88.55147557   269.47049819
 C      9   7   5     6.155105231758   119.97728289   357.15692959
 H     11   9   7     2.100159767501    88.50298120    90.60967264

---------------------
BASIS SET INFORMATION
---------------------
There are 2 groups of distinct atoms

 Group   1 Type C   : 10s4p1d contracted to 3s2p1d pattern {631/31/1}
 Group   2 Type H   : 4s contracted to 2s pattern {31}

Atom   0C    basis set group =>   1
Atom   1H    basis set group =>   2
Atom   2C    basis set group =>   1
Atom   3H    basis set group =>   2
Atom   4C    basis set group =>   1
Atom   5H    basis set group =>   2
Atom   6C    basis set group =>   1
Atom   7H    basis set group =>   2
Atom   8C    basis set group =>   1
Atom   9H    basis set group =>   2
Atom  10C    basis set group =>   1
Atom  11H    basis set group =>   2
------------------------------------------------------------------------------
                           ORCA GTO INTEGRAL CALCULATION
------------------------------------------------------------------------------

                         BASIS SET STATISTICS AND STARTUP INFO

 # of primitive gaussian shells          ...  114
 # of primitive gaussian functions       ...  186
 # of contracted shells                  ...   48
 # of contracted basis functions         ...   96
 Highest angular momentum                ...    2
 Maximum contraction depth               ...    6
 Integral package used                   ... LIBINT
 Integral threshhold            Thresh   ...  1.000e-10
 Primitive cut-off              TCut     ...  1.000e-11


------------------------------ INTEGRAL EVALUATION ----------------------------


 * One electron integrals 
 Pre-screening matrix                    ... done
 Shell pair data                         ... done (   0.001 sec)

-------------------------------------------------------------------------------
                                 ORCA SCF
-------------------------------------------------------------------------------

------------
SCF SETTINGS
------------
Hamiltonian:
 Density Functional     Method          .... DFT(GTOs)
 Exchange Functional    Exchange        .... WB97X-D3
 Correlation Functional Correlation     .... WB97X-D3
 Gradients option       PostSCFGGA      .... off
 Hybrid DFT is turned on
   Fraction HF Exchange ScalHFX         ....  0.195728
   Scaling of DF-GGA-X  ScalDFX         ....  0.000000
   Scaling of DF-GGA-C  ScalDFC         ....  1.000000
   Scaling of DF-LDA-C  ScalLDAC        ....  1.000000
   Perturbative correction              ....  0.000000
 Long-range corrected/Screened/Range-Separated Hybrid DFT is turned on
   Amount of maximum screened exact exchange              ....  0.804272
   Range separation parameter mu (erf(mu*r12)/r12)        ....  0.250000


General Settings:
 Integral files         IntName         .... Scan_28
 Hartree-Fock type      HFTyp           .... RHF
 Total Charge           Charge          ....    0
 Multiplicity           Mult            ....    1
 Number of Electrons    NEL             ....   42
 Basis Dimension        Dim             ....   96
 Nuclear Repulsion      ENuc            ....    103.5804829186 Eh

Convergence Acceleration:
 DIIS                   CNVDIIS         .... on
   Start iteration      DIISMaxIt       ....     0
   Startup error        DIISStart       ....  0.200000
   # of expansion vecs  DIISMaxEq       ....     5
   Bias factor          DIISBfac        ....   1.050
   Max. coefficient     DIISMaxC        ....  10.000
 Newton-Raphson         CNVNR           .... off
 SOSCF                  CNVSOSCF        .... off
 Level Shifting         CNVShift        .... off
 Zerner damping         CNVZerner       .... off
 Static damping         CNVDamp         .... off
 Fernandez-Rico         CNVRico         .... off

SCF Procedure:
 Maximum # iterations   MaxIter         ....   999
 SCF integral mode      SCFMode         .... Direct
   Integral package                     .... LIBINT
 Reset frequeny         DirectResetFreq ....    20
 Integral Threshold     Thresh          ....  1.000e-10 Eh
 Primitive CutOff       TCut            ....  1.000e-11 Eh

Convergence Tolerance:
 Convergence Check Mode ConvCheckMode   .... All-Criteria
 Convergence forced     ConvForced      .... 0
 Energy Change          TolE            ....  1.000e-06 Eh
 Max Density Change     TolMaxP         ....  1.000e-05
 RMS Density Change     TolRMSP         ....  1.000e-06
 DIIS Error             TolErr          ....  1.000e-06


Diagonalization of the overlap matrix:
Smallest eigenvalue                        ... 4.242e-02
Time for diagonalization                   ...    0.002 sec
Threshold for overlap eigenvalues          ... 1.000e-08
Number of eigenvalues below threshold      ... 0
Time for construction of square roots      ...    0.008 sec
Total time needed                          ...    0.010 sec

-------------------
DFT GRID GENERATION
-------------------

General Integration Accuracy     IntAcc      ...  4.340
Radial Grid Type                 RadialGrid  ... Gauss-Chebyshev
Angular Grid (max. acc.)         AngularGrid ... Lebedev-110
Angular grid pruning method      GridPruning ... 3 (G Style)
Weight generation scheme         WeightScheme... Becke
Basis function cutoff            BFCut       ...    1.0000e-10
Integration weight cutoff        WCut        ...    1.0000e-14
Grids for H and He will be reduced by one unit

# of grid points (after initial pruning)     ...  14700 (   0.0 sec)
# of grid points (after weights+screening)   ...  14159 (   0.0 sec)
nearest neighbour list constructed           ...    0.0 sec
Grid point re-assignment to atoms done       ...    0.0 sec
Grid point division into batches done        ...    0.0 sec
Reduced shell lists constructed in    0.2 sec

Total number of grid points                  ...    14159
Total number of batches                      ...      228
Average number of points per batch           ...       62
Average number of grid points per atom       ...     1180
Average number of shells per batch           ...    25.54 (53.21%)
Average number of basis functions per batch  ...    49.94 (52.02%)
Average number of large shells per batch     ...    16.12 (63.12%)
Average number of large basis fcns per batch ...    31.82 (63.71%)
Maximum spatial batch extension              ...  21.22, 25.60, 19.16 au
Average spatial batch extension              ...   5.06,  4.87,  4.27 au

Time for grid setup =    0.232 sec

------------------------------
INITIAL GUESS: MODEL POTENTIAL
------------------------------
Loading Hartree-Fock densities                     ... done
Calculating cut-offs                               ... done
Setting up the integral package                    ... done
Initializing the effective Hamiltonian             ... done
Starting the Coulomb interaction                   ... done (   0.1 sec)
Reading the grid                                   ... done
Mapping shells                                     ... done
Starting the XC term evaluation                    ... done (   0.1 sec)
  promolecular density results
     # of electrons  =     41.998462940
     EX              =    -31.549509882
     EC              =     -1.146281817
     EX+EC           =    -32.695791699
Transforming the Hamiltonian                       ... done (   0.0 sec)
Diagonalizing the Hamiltonian                      ... done (   0.0 sec)
Back transforming the eigenvectors                 ... done (   0.0 sec)
Now organizing SCF variables                       ... done
                      ------------------
                      INITIAL GUESS DONE (   0.5 sec)
                      ------------------
--------------
SCF ITERATIONS
--------------
ITER       Energy         Delta-E        Max-DP      RMS-DP      [F,P]   Gradient Norm
               ***  Starting incremental Fock matrix formation  ***
                             ****Resetting KDIIS****
                             ****Turning on KDIIS(Cayley)****
  0   -230.5747204923   0.000000000000 0.00423254  0.00028689  0.0270207   0.025533401
  1   -230.5789568206  -0.004236328295 0.00819471  0.00068383  0.0242758   0.023137029
  2   -230.5877421454  -0.008785324811 0.01941364  0.00153280  0.0198991   0.018706650
  3   -230.6014740144  -0.013731868986 0.03055945  0.00275610  0.0115799   0.011254610
  4   -230.6099702916  -0.008496277219 0.00323271  0.00025805  0.0016178   0.001252437
  5   -230.6100914611  -0.000121169451 0.00042566  0.00003215  0.0002654   0.000164692
  6   -230.6100942856  -0.000002824461 0.00027557  0.00001543  0.0001148   0.000080461
                          ***Energy convergence achieved***
  7   -230.6100950115  -0.000000725908 0.00017953  0.00000936  0.0000784   0.000054132
  8   -230.6100953211  -0.000000309616 0.00010072  0.00000765  0.0000628   0.000031425
  9   -230.6100955162  -0.000000195167 0.00011015  0.00000641  0.0000471   0.000018970
 10   -230.6100956521  -0.000000135892 0.00011032  0.00000676  0.0000412   0.000017364
 11   -230.6100957764  -0.000000124229 0.00018821  0.00001097  0.0000305   0.000015511
 12   -230.6100959407  -0.000000164355 0.00015253  0.00000898  0.0000283   0.000015096
 13   -230.6100960446  -0.000000103831 0.00018235  0.00000924  0.0000192   0.000011190
 14   -230.6100961213  -0.000000076796 0.00015003  0.00000805  0.0000130   0.000010907
 15   -230.6100961650  -0.000000043623 0.00013699  0.00000731  0.0000119   0.000006307

            ***Energy convergence in two consecutive cycles with***
                    ***'reasonable' density convergence***
                       *** signaling convergence ***

                    *** KDIIS BlockDiag ( 0.001 sec) ***

               *****************************************************
               *                     SUCCESS                       *
               *           SCF CONVERGED AFTER  16 CYCLES          *
               *****************************************************

Setting up the final grid:

General Integration Accuracy     IntAcc      ...  4.670
Radial Grid Type                 RadialGrid  ... Gauss-Chebyshev
Angular Grid (max. acc.)         AngularGrid ... Lebedev-302
Angular grid pruning method      GridPruning ... 3 (G Style)
Weight generation scheme         WeightScheme... Becke
Basis function cutoff            BFCut       ...    1.0000e-10
Integration weight cutoff        WCut        ...    1.0000e-14
Grids for H and He will be reduced by one unit

# of grid points (after initial pruning)     ...  57636 (   0.0 sec)
# of grid points (after weights+screening)   ...  55542 (   0.1 sec)
nearest neighbour list constructed           ...    0.0 sec
Grid point re-assignment to atoms done       ...    0.0 sec
Grid point division into batches done        ...    0.2 sec
Reduced shell lists constructed in    0.7 sec

Total number of grid points                  ...    55542
Total number of batches                      ...      876
Average number of points per batch           ...       63
Average number of grid points per atom       ...     4628
Average number of shells per batch           ...    22.49 (46.86%)
Average number of basis functions per batch  ...    43.68 (45.50%)
Average number of large shells per batch     ...    13.73 (61.04%)
Average number of large basis fcns per batch ...    26.66 (61.03%)
Maximum spatial batch extension              ...  18.86, 21.77, 18.97 au
Average spatial batch extension              ...   3.11,  3.20,  2.86 au

Final grid set up in    0.8 sec
Final integration                            ... done (   0.5 sec)
Change in XC energy                          ...     0.000417970
Integrated number of electrons               ...    42.000000145
Previous integrated no of electrons          ...    42.005216193

----------------
TOTAL SCF ENERGY
----------------

Total Energy       :         -230.60967822 Eh           -6275.20837 eV

Components:
Nuclear Repulsion  :          103.58048292 Eh            2818.56823 eV
Electronic Energy  :         -334.19016113 Eh           -9093.77660 eV
One Electron Energy:         -512.73865719 Eh          -13952.32818 eV
Two Electron Energy:          178.54849606 Eh            4858.55158 eV

Virial components:
Potential Energy   :         -459.54573120 Eh          -12504.87508 eV
Kinetic Energy     :          228.93605299 Eh            6229.66671 eV
Virial Ratio       :            2.00731045


DFT components:
N(Alpha)           :       21.000000072401 electrons
N(Beta)            :       21.000000072401 electrons
N(Total)           :       42.000000144802 electrons
E(XC)              :      -22.729875470151 Eh       

---------------
SCF CONVERGENCE
---------------

  Last Energy change         ...   -2.0643e-08  Tolerance :   1.0000e-06
  Last MAX-Density change    ...    4.6551e-05  Tolerance :   1.0000e-05
  Last RMS-Density change    ...    2.5695e-06  Tolerance :   1.0000e-06
  Last DIIS Error            ...    5.3139e-06  Tolerance :   1.0000e-06

             **** THE GBW FILE WAS UPDATED (Scan_28.gbw) ****
             **** DENSITY FILE WAS UPDATED (Scan_28.scfp.tmp) ****
             **** ENERGY FILE WAS UPDATED (Scan_28.en.tmp) ****
----------------
ORBITAL ENERGIES
----------------

  NO   OCC          E(Eh)            E(eV) 
   0   2.0000     -10.409456      -283.2557 
   1   2.0000     -10.409433      -283.2551 
   2   2.0000     -10.409389      -283.2539 
   3   2.0000     -10.409372      -283.2534 
   4   2.0000     -10.408972      -283.2425 
   5   2.0000     -10.408946      -283.2418 
   6   2.0000      -0.751899       -20.4602 
   7   2.0000      -0.747689       -20.3457 
   8   2.0000      -0.747543       -20.3417 
   9   2.0000      -0.738050       -20.0834 
  10   2.0000      -0.737908       -20.0795 
  11   2.0000      -0.732765       -19.9395 
  12   2.0000      -0.410627       -11.1737 
  13   2.0000      -0.410467       -11.1694 
  14   2.0000      -0.409962       -11.1556 
  15   2.0000      -0.408636       -11.1196 
  16   2.0000      -0.408507       -11.1161 
  17   2.0000      -0.406832       -11.0705 
  18   2.0000      -0.294662        -8.0182 
  19   2.0000      -0.251417        -6.8414 
  20   2.0000      -0.251308        -6.8384 
  21   0.0000      -0.086924        -2.3653 
  22   0.0000      -0.086401        -2.3511 
  23   0.0000      -0.058714        -1.5977 
  24   0.0000      -0.035718        -0.9719 
  25   0.0000      -0.035576        -0.9681 
  26   0.0000      -0.026999        -0.7347 
  27   0.0000      -0.022697        -0.6176 
  28   0.0000      -0.022333        -0.6077 
  29   0.0000      -0.015247        -0.4149 
  30   0.0000       0.210110         5.7174 
  31   0.0000       0.218647         5.9497 
  32   0.0000       0.218746         5.9524 
  33   0.0000       0.235530         6.4091 
  34   0.0000       0.235573         6.4103 
  35   0.0000       0.243748         6.6327 
  36   0.0000       0.566251        15.4085 
  37   0.0000       0.574534        15.6339 
  38   0.0000       0.580296        15.7907 
  39   0.0000       0.580488        15.7959 
  40   0.0000       0.585002        15.9187 
  41   0.0000       0.585232        15.9250 
  42   0.0000       0.605473        16.4758 
  43   0.0000       0.629018        17.1165 
  44   0.0000       0.629351        17.1255 
  45   0.0000       0.654522        17.8104 
  46   0.0000       0.654607        17.8128 
  47   0.0000       0.679866        18.5001 
  48   0.0000       0.680977        18.5303 
  49   0.0000       0.681262        18.5381 
  50   0.0000       0.686026        18.6677 
  51   0.0000       0.686095        18.6696 
  52   0.0000       0.700305        19.0563 
  53   0.0000       0.721089        19.6218 
  54   0.0000       0.873079        23.7577 
  55   0.0000       0.890712        24.2375 
  56   0.0000       0.890920        24.2432 
  57   0.0000       0.927601        25.2413 
  58   0.0000       0.927655        25.2428 
  59   0.0000       0.954291        25.9676 
  60   0.0000       0.965846        26.2820 
  61   0.0000       0.971819        26.4445 
  62   0.0000       0.971922        26.4473 
  63   0.0000       1.012157        27.5422 
  64   0.0000       1.012332        27.5470 
  65   0.0000       1.059448        28.8290 
  66   0.0000       1.747344        47.5477 
  67   0.0000       1.747390        47.5489 
  68   0.0000       1.747523        47.5525 
  69   0.0000       1.747563        47.5536 
  70   0.0000       1.747936        47.5638 
  71   0.0000       1.748029        47.5663 
  72   0.0000       1.761222        47.9253 
  73   0.0000       1.762163        47.9509 
  74   0.0000       1.762264        47.9537 
  75   0.0000       1.763171        47.9783 
  76   0.0000       1.763246        47.9804 
  77   0.0000       1.763266        47.9809 
  78   0.0000       1.776201        48.3329 
  79   0.0000       1.776855        48.3507 
  80   0.0000       1.778058        48.3834 
  81   0.0000       1.778171        48.3865 
  82   0.0000       1.778689        48.4006 
  83   0.0000       1.779848        48.4321 
  84   0.0000       1.781570        48.4790 
  85   0.0000       1.783517        48.5320 
  86   0.0000       1.783914        48.5428 
  87   0.0000       1.787711        48.6461 
  88   0.0000       1.788998        48.6811 
  89   0.0000       1.789064        48.6829 
  90   0.0000       2.194012        59.7021 
  91   0.0000       2.198922        59.8357 
  92   0.0000       2.199095        59.8404 
  93   0.0000       2.213776        60.2399 
  94   0.0000       2.213919        60.2438 
  95   0.0000       2.223622        60.5078 

                    ********************************
                    * MULLIKEN POPULATION ANALYSIS *
                    ********************************

-----------------------
MULLIKEN ATOMIC CHARGES
-----------------------
   0 C :   -0.173091
   1 H :    0.172647
   2 C :   -0.172722
   3 H :    0.172848
   4 C :   -0.172418
   5 H :    0.172812
   6 C :   -0.173185
   7 H :    0.172571
   8 C :   -0.172740
   9 H :    0.172822
  10 C :   -0.172396
  11 H :    0.172852
Sum of atomic charges:   -0.0000000

--------------------------------
MULLIKEN REDUCED ORBITAL CHARGES
--------------------------------
  0 C s       :     3.915450  s :     3.915450
      pz      :     1.236088  p :     2.242861
      px      :     0.026935
      py      :     0.979838
      dz2     :     0.014086  d :     0.014780
      dxz     :     0.000022
      dyz     :     0.000479
      dx2y2   :     0.000085
      dxy     :     0.000108
  1 H s       :     0.827353  s :     0.827353
  2 C s       :     3.915216  s :     3.915216
      pz      :     1.236518  p :     2.242733
      px      :     0.680467
      py      :     0.325748
      dz2     :     0.014080  d :     0.014772
      dxz     :     0.000334
      dyz     :     0.000162
      dx2y2   :     0.000108
      dxy     :     0.000088
  3 H s       :     0.827152  s :     0.827152
  4 C s       :     3.915179  s :     3.915179
      pz      :     1.236456  p :     2.242458
      px      :     0.807448
      py      :     0.198554
      dz2     :     0.014085  d :     0.014780
      dxz     :     0.000393
      dyz     :     0.000105
      dx2y2   :     0.000101
      dxy     :     0.000096
  5 H s       :     0.827188  s :     0.827188
  6 C s       :     3.915411  s :     3.915411
      pz      :     1.235935  p :     2.242995
      px      :     0.026996
      py      :     0.980064
      dz2     :     0.014085  d :     0.014779
      dxz     :     0.000024
      dyz     :     0.000477
      dx2y2   :     0.000085
      dxy     :     0.000108
  7 H s       :     0.827429  s :     0.827429
  8 C s       :     3.915198  s :     3.915198
      pz      :     1.236460  p :     2.242770
      px      :     0.680708
      py      :     0.325602
      dz2     :     0.014079  d :     0.014772
      dxz     :     0.000332
      dyz     :     0.000164
      dx2y2   :     0.000108
      dxy     :     0.000089
  9 H s       :     0.827178  s :     0.827178
 10 C s       :     3.915204  s :     3.915204
      pz      :     1.236542  p :     2.242411
      px      :     0.807332
      py      :     0.198538
      dz2     :     0.014086  d :     0.014781
      dxz     :     0.000395
      dyz     :     0.000103
      dx2y2   :     0.000102
      dxy     :     0.000095
 11 H s       :     0.827148  s :     0.827148


                     *******************************
                     * LOEWDIN POPULATION ANALYSIS *
                     *******************************

----------------------
LOEWDIN ATOMIC CHARGES
----------------------
   0 C :   -0.119717
   1 H :    0.119284
   2 C :   -0.119369
   3 H :    0.119483
   4 C :   -0.119062
   5 H :    0.119445
   6 C :   -0.119821
   7 H :    0.119243
   8 C :   -0.119391
   9 H :    0.119470
  10 C :   -0.119033
  11 H :    0.119466

-------------------------------
LOEWDIN REDUCED ORBITAL CHARGES
-------------------------------
  0 C s       :     3.747681  s :     3.747681
      pz      :     1.342005  p :     2.352093
      px      :     0.028483
      py      :     0.981605
      dz2     :     0.019221  d :     0.019943
      dxz     :     0.000027
      dyz     :     0.000477
      dx2y2   :     0.000094
      dxy     :     0.000123
  1 H s       :     0.880716  s :     0.880716
  2 C s       :     3.747629  s :     3.747629
      pz      :     1.342256  p :     2.351811
      px      :     0.682174
      py      :     0.327380
      dz2     :     0.019208  d :     0.019929
      dxz     :     0.000335
      dyz     :     0.000164
      dx2y2   :     0.000123
      dxy     :     0.000098
  3 H s       :     0.880517  s :     0.880517
  4 C s       :     3.747614  s :     3.747614
      pz      :     1.342162  p :     2.351511
      px      :     0.809177
      py      :     0.200172
      dz2     :     0.019213  d :     0.019937
      dxz     :     0.000392
      dyz     :     0.000110
      dx2y2   :     0.000114
      dxy     :     0.000108
  5 H s       :     0.880555  s :     0.880555
  6 C s       :     3.747643  s :     3.747643
      pz      :     1.341865  p :     2.352235
      px      :     0.028549
      py      :     0.981821
      dz2     :     0.019220  d :     0.019942
      dxz     :     0.000029
      dyz     :     0.000475
      dx2y2   :     0.000094
      dxy     :     0.000124
  7 H s       :     0.880757  s :     0.880757
  8 C s       :     3.747613  s :     3.747613
      pz      :     1.342201  p :     2.351849
      px      :     0.682397
      py      :     0.327251
      dz2     :     0.019207  d :     0.019929
      dxz     :     0.000332
      dyz     :     0.000168
      dx2y2   :     0.000122
      dxy     :     0.000099
  9 H s       :     0.880530  s :     0.880530
 10 C s       :     3.747636  s :     3.747636
      pz      :     1.342242  p :     2.351460
      px      :     0.809077
      py      :     0.200141
      dz2     :     0.019214  d :     0.019937
      dxz     :     0.000396
      dyz     :     0.000106
      dx2y2   :     0.000115
      dxy     :     0.000106
 11 H s       :     0.880534  s :     0.880534


                      *****************************
                      * MAYER POPULATION ANALYSIS *
                      *****************************

  NA   - Mulliken gross atomic population
  ZA   - Total nuclear charge
  QA   - Mulliken gross atomic charge
  VA   - Mayer's total valence
  BVA  - Mayer's bonded valence
  FA   - Mayer's free valence

  ATOM       NA         ZA         QA         VA         BVA        FA
  0 C      6.1731     6.0000    -0.1731     1.9719     1.9719    -0.0000
  1 H      0.8274     1.0000     0.1726     0.9063     0.9063     0.0000
  2 C      6.1727     6.0000    -0.1727     1.9730     1.9730     0.0000
  3 H      0.8272     1.0000     0.1728     0.9064     0.9064    -0.0000
  4 C      6.1724     6.0000    -0.1724     1.9730     1.9730    -0.0000
  5 H      0.8272     1.0000     0.1728     0.9065     0.9065    -0.0000
  6 C      6.1732     6.0000    -0.1732     1.9720     1.9720     0.0000
  7 H      0.8274     1.0000     0.1726     0.9063     0.9063    -0.0000
  8 C      6.1727     6.0000    -0.1727     1.9731     1.9731    -0.0000
  9 H      0.8272     1.0000     0.1728     0.9065     0.9065     0.0000
 10 C      6.1724     6.0000    -0.1724     1.9729     1.9729    -0.0000
 11 H      0.8271     1.0000     0.1729     0.9065     0.9065     0.0000

  Mayer bond orders larger than 0.1
B(  0-C ,  1-H ) :   0.9041 B(  0-C ,  2-C ) :   0.4615 B(  0-C , 10-C ) :   0.4611 
B(  2-C ,  3-H ) :   0.9041 B(  2-C ,  4-C ) :   0.4629 B(  4-C ,  5-H ) :   0.9042 
B(  4-C ,  6-C ) :   0.4612 B(  6-C ,  7-H ) :   0.9041 B(  6-C ,  8-C ) :   0.4614 
B(  8-C ,  9-H ) :   0.9042 B(  8-C , 10-C ) :   0.4630 B( 10-C , 11-H ) :   0.9042 


-------
TIMINGS
-------

Total SCF time: 0 days 0 hours 0 min 22 sec 

Total time                  ....      22.223 sec
Sum of individual times     ....      21.847 sec  ( 98.3%)

Fock matrix formation       ....      20.461 sec  ( 92.1%)
  XC integration            ....       3.371 sec  ( 16.5% of F)
    Basis function eval.    ....       1.559 sec  ( 46.3% of XC)
    Density eval.           ....       0.205 sec  (  6.1% of XC)
    XC-Functional eval.     ....       0.915 sec  ( 27.1% of XC)
    XC-Potential eval.      ....       0.187 sec  (  5.6% of XC)
Diagonalization             ....       0.049 sec  (  0.2%)
Density matrix formation    ....       0.002 sec  (  0.0%)
Population analysis         ....       0.013 sec  (  0.1%)
Initial guess               ....       0.288 sec  (  1.3%)
Orbital Transformation      ....       0.000 sec  (  0.0%)
Orbital Orthonormalization  ....       0.000 sec  (  0.0%)
DIIS solution               ....       0.000 sec  (  0.0%)
Grid generation             ....       1.035 sec  (  4.7%)


-------------------------------------------------------------------------------
                          DFT DISPERSION CORRECTION                            
                                                                               
                              DFTD3 V3.1  Rev 1                                
                              USING zero damping                               
-------------------------------------------------------------------------------
The omegaB97X-D3 functional is recognized. Fit by Chai et al.
Active option DFTDOPT                   ...         3   

molecular C6(AA) [au] = 2491.030978 


            DFT-D V3
 parameters
 s6 scaling factor         :     1.0000 
 rs6 scaling factor        :     1.2810 
 s8 scaling factor         :     1.0000 
 rs8 scaling factor        :     1.0940 
 Damping factor alpha6     :    14.0000 
 Damping factor alpha8     :    16.0000 
 ad hoc parameters k1-k3   :    16.0000     1.3333    -4.0000 

 Edisp/kcal,au: -1.751897245028  -0.002791825670 
 E6   /kcal   :  -0.772936760 
 E8   /kcal   :  -0.978960485 
 % E8         :  55.880017372 

-------------------------   ----------------
Dispersion correction           -0.002791826
-------------------------   ----------------


-------------------------   --------------------
FINAL SINGLE POINT ENERGY      -230.612470041689
-------------------------   --------------------


                            ***************************************
                            *     ORCA property calculations      *
                            ***************************************

                                    ---------------------
                                    Active property flags
                                    ---------------------
   (+) Dipole Moment


------------------------------------------------------------------------------
                       ORCA ELECTRIC PROPERTIES CALCULATION
------------------------------------------------------------------------------

Dipole Moment Calculation                       ... on
Quadrupole Moment Calculation                   ... off
Polarizability Calculation                      ... off
GBWName                                         ... Scan_28.gbw
Electron density file                           ... Scan_28.scfp.tmp

-------------
DIPOLE MOMENT
-------------
                                X             Y             Z
Electronic contribution:      0.00338      -0.00055      -0.00003
Nuclear contribution   :     -0.00554       0.00097       0.00000
                        -----------------------------------------
Total Dipole Moment    :     -0.00217       0.00042      -0.00003
                        -----------------------------------------
Magnitude (a.u.)       :      0.00221
Magnitude (Debye)      :      0.00561


Timings for individual modules:

Sum of individual times         ...       22.596 sec (=   0.377 min)
GTO integral calculation        ...        0.348 sec (=   0.006 min)   1.5 %
SCF iterations                  ...       22.248 sec (=   0.371 min)  98.5 %
                             ****ORCA TERMINATED NORMALLY****
TOTAL RUN TIME: 0 days 0 hours 0 minutes 22 seconds 964 msec
