
                                 *****************
                                 * O   R   C   A *
                                 *****************

           --- An Ab Initio, DFT and Semiempirical electronic structure package ---

                  #######################################################
                  #                        -***-                        #
                  #  Department of molecular theory and spectroscopy    #
                  #              Directorship: Frank Neese              #
                  # Max Planck Institute for Chemical Energy Conversion #
                  #                  D-45470 Muelheim/Ruhr              #
                  #                       Germany                       #
                  #                                                     #
                  #                  All rights reserved                #
                  #                        -***-                        #
                  #######################################################


                         Program Version 4.0.0.2 - RELEASE -


 With contributions from (in alphabetic order):
   Daniel Aravena         : Magnetic Properties
   Michael Atanasov       : Ab Initio Ligand Field Theory
   Ute Becker             : Parallelization
   Martin Brehm           : Molecular dynamics
   Dmytro Bykov           : SCF Hessian
   Vijay G. Chilkuri      : MRCI spin determinant printing
   Dipayan Datta          : RHF DLPNO-CCSD density
   Achintya Kumar Dutta   : EOM-CC, STEOM-CC
   Dmitry Ganyushin       : Spin-Orbit,Spin-Spin,Magnetic field MRCI
   Yang Guo               : DLPNO-NEVPT2, CIM, IAO-localization
   Andreas Hansen         : Spin unrestricted coupled pair/coupled cluster methods
   Lee Huntington         : MR-EOM, pCC
   Robert Izsak           : Overlap fitted RIJCOSX, COSX-SCS-MP3, EOM
   Christian Kollmar      : KDIIS, OOCD, Brueckner-CCSD(T), CCSD density
   Simone Kossmann        : Meta GGA functionals, TD-DFT gradient, OOMP2, MP2 Hessian
   Martin Krupicka        : AUTO-CI
   Dagmar Lenk            : GEPOL surface
   Dimitrios Liakos       : Extrapolation schemes; parallel MDCI
   Dimitrios Manganas     : ROCIS; embedding schemes
   Dimitrios Pantazis     : SARC Basis sets
   Taras Petrenko         : DFT Hessian,TD-DFT gradient, ASA, ECA, R-Raman, ABS, FL, XAS/XES, NRVS
   Peter Pinski           : DLPNO-MP2
   Christoph Reimann      : Effective Core Potentials
   Marius Retegan         : Local ZFS, SOC
   Christoph Riplinger    : Optimizer, TS searches, QM/MM, DLPNO-CCSD(T), (RO)-DLPNO pert. Triples
   Tobias Risthaus        : Range-separated hybrids, TD-DFT gradient, RPA, STAB
   Michael Roemelt        : Restricted open shell CIS
   Masaaki Saitow         : Open-shell DLPNO
   Barbara Sandhoefer     : DKH picture change effects
   Kantharuban Sivalingam : CASSCF convergence, NEVPT2, FIC-MRCI
   Georgi Stoychev        : AutoAux
   Boris Wezisla          : Elementary symmetry handling
   Frank Wennmohs         : Technical directorship


 We gratefully acknowledge several colleagues who have allowed us to
 interface, adapt or use parts of their codes:
   Stefan Grimme, W. Hujo, H. Kruse,             : VdW corrections, initial TS optimization,
                  C. Bannwarth                     DFT functionals, gCP, sTDA/sTD-DF
   Ed Valeev                                     : LibInt (2-el integral package), F12 methods
   Garnet Chan, S. Sharma, J. Yang, R. Olivares  : DMRG
   Ulf Ekstrom                                   : XCFun DFT Library
   Mihaly Kallay                                 : mrcc  (arbitrary order and MRCC methods)
   Jiri Pittner, Ondrej Demel                    : Mk-CCSD
   Frank Weinhold                                : gennbo (NPA and NBO analysis)
   Christopher J. Cramer and Donald G. Truhlar   : smd solvation model


 Your calculation uses the libint2 library for the computation of 2-el integrals
 For citations please refer to: http://libint.valeyev.net

 This ORCA versions uses:
   CBLAS   interface :  Fast vector & matrix operations
   LAPACKE interface :  Fast linear algebra routines
   SCALAPACK package :  Parallel linear algebra routines


Your calculation utilizes the atom-pairwise dispersion correction
with the zero-damping scheme (D30)
Cite in your paper:
S.Grimme, J.Antony, S.Ehrlich and H.Krieg, J.Chem.Phys., 132, (2010), 154104 
   

XCFun DFT library Copyright 2009-2010 Ulf Ekstrom and contributors.
See http://admol.org/xcfun for more information. This is free soft-
ware; see the source code for copying conditions. There is ABSOLUTELY
NO WARRANTY; not even for MERCHANTABILITY or FITNESS FOR A PARTICULAR
PURPOSE. For details see the documentation. Scientific users of this 
library should cite U. Ekstrom, L. Visscher, R. Bast, A. J. Thorvald-
sen and K. Ruud; J.Chem.Theor.Comp. 2010, DOI: 10.1021/ct100117s
XCFun Version 0.99 
Your calculation utilizes the basis: 6-31G(d)
   H-He, Li-Ne : W. J. Hehre, R. Ditchfield and J.A. Pople, J. Chem. Phys. 56, 2257 (1972).
                 Note: He and Ne are unpublished basis sets taken from the Gaussian program.
                 Note: Li and B from J. D. Dill and J. A. Pople, J. Chem. Phys. 62, 2921 (1975).
   Na - Ar     : M. M. Francl, W. J. Pietro, W. J. Hehre, J. S. Binkley, M. S. Gordon, 
                 D. J. DeFrees and J. A. Pople, J. Chem. Phys. 77, 3654 (1982).
   K - Zn      : V. A. Rassolov, J. A. Pople, M. A. Ratner, and T. L. Windus, J. Chem. Phys. 109, 1223 (1998).

================================================================================
                                        WARNINGS
                       Please study these warnings very carefully!
================================================================================

Warning: TCutStore was < 0. Adjusted to Thresh (uncritical)

INFO   : the flag for use of LIBINT has been found!

================================================================================
                                       INPUT FILE
================================================================================
NAME = initial29.inp
|  1> ! WB97X-D3 6-31G(d) VerySlowConv
|  2> ! KDIIS NOSOSCF
|  3> %base "Scan_29"
|  4> 
|  5> %scf
|  6> maxiter 999
|  7> end
|  8> 
|  9> * xyz 0 1
| 10> C          3.478985941783   -2.999665418242    0.067220223782
| 11> H          3.474350570207   -2.998943900824   -1.043955879346
| 12> C          2.027240161179    0.028638615476   -0.064541091133
| 13> H          2.020397943161    0.026950799049    1.046625768482
| 14> C         -1.321451494650    0.285917171069    0.060463661494
| 15> H         -1.322351764546    0.278678605416   -1.050705028719
| 16> C         -3.217006112669   -2.486771119092   -0.060485384246
| 17> H         -3.211991025444   -2.486583386027    1.050698249879
| 18> C         -1.765064107709   -5.515381996454    0.061725261024
| 19> H         -1.765516708136   -5.508341953783   -1.049443367919
| 20> C          1.583635958529   -5.772007474310   -0.064383758729
| 21> H          1.577380638294   -5.768599942283    1.046781345429
| 22> **                         ****END OF INPUT****
================================================================================

                       ****************************
                       * Single Point Calculation *
                       ****************************

---------------------------------
CARTESIAN COORDINATES (ANGSTROEM)
---------------------------------
  C      3.478986   -2.999665    0.067220
  H      3.474351   -2.998944   -1.043956
  C      2.027240    0.028639   -0.064541
  H      2.020398    0.026951    1.046626
  C     -1.321451    0.285917    0.060464
  H     -1.322352    0.278679   -1.050705
  C     -3.217006   -2.486771   -0.060485
  H     -3.211991   -2.486583    1.050698
  C     -1.765064   -5.515382    0.061725
  H     -1.765517   -5.508342   -1.049443
  C      1.583636   -5.772007   -0.064384
  H      1.577381   -5.768600    1.046781

----------------------------
CARTESIAN COORDINATES (A.U.)
----------------------------
  NO LB      ZA    FRAG     MASS         X           Y           Z
   0 C     6.0000    0    12.011    6.574331   -5.668546    0.127028
   1 H     1.0000    0     1.008    6.565571   -5.667183   -1.972791
   2 C     6.0000    0    12.011    3.830929    0.054119   -0.121965
   3 H     1.0000    0     1.008    3.817999    0.050930    1.977836
   4 C     6.0000    0    12.011   -2.497181    0.540305    0.114260
   5 H     1.0000    0     1.008   -2.498883    0.526626   -1.985545
   6 C     6.0000    0    12.011   -6.079261   -4.699316   -0.114301
   7 H     1.0000    0     1.008   -6.069783   -4.698962    1.985532
   8 C     6.0000    0    12.011   -3.335488  -10.422561    0.116644
   9 H     1.0000    0     1.008   -3.336343  -10.409258   -1.983161
  10 C     6.0000    0    12.011    2.992638  -10.907513   -0.121668
  11 H     1.0000    0     1.008    2.980817  -10.901074    1.978130

--------------------------------
INTERNAL COORDINATES (ANGSTROEM)
--------------------------------
 C      0   0   0     0.000000000000     0.00000000     0.00000000
 H      1   0   0     1.111186005770     0.00000000     0.00000000
 C      1   2   0     3.360885623797    87.61632495     0.00000000
 H      3   1   2     1.111189207371    87.82725905   179.44436898
 C      3   1   2     3.360885932186   119.86139568    93.55289180
 H      5   3   1     1.111192632008    87.88618787   266.55685601
 C      5   3   1     3.360886242638   119.83249760   352.57706264
 H      7   5   3     1.111194967182    87.78371953    93.43567350
 C      7   5   3     3.360886025152   119.89813522     7.23735433
 H      9   7   5     1.111191022730    87.57870053   266.55491289
 C      1   2   3     3.360885544477    87.65170028   120.04511150
 H     11   1   2     1.111187935952    87.79290053   180.58418822

---------------------------
INTERNAL COORDINATES (A.U.)
---------------------------
 C      0   0   0     0.000000000000     0.00000000     0.00000000
 H      1   0   0     2.099837234752     0.00000000     0.00000000
 C      1   2   0     6.351153396409    87.61632495     0.00000000
 H      3   1   2     2.099843284901    87.82725905   179.44436898
 C      3   1   2     6.351153979180   119.86139568    93.55289180
 H      5   3   1     2.099849756526    87.88618787   266.55685601
 C      5   3   1     6.351154565850   119.83249760   352.57706264
 H      7   5   3     2.099854169366    87.78371953    93.43567350
 C      7   5   3     6.351154154860   119.89813522     7.23735433
 H      9   7   5     2.099846715431    87.57870053   266.55491289
 C      1   2   3     6.351153246517    87.65170028   120.04511150
 H     11   1   2     2.099840882266    87.79290053   180.58418822

---------------------
BASIS SET INFORMATION
---------------------
There are 2 groups of distinct atoms

 Group   1 Type C   : 10s4p1d contracted to 3s2p1d pattern {631/31/1}
 Group   2 Type H   : 4s contracted to 2s pattern {31}

Atom   0C    basis set group =>   1
Atom   1H    basis set group =>   2
Atom   2C    basis set group =>   1
Atom   3H    basis set group =>   2
Atom   4C    basis set group =>   1
Atom   5H    basis set group =>   2
Atom   6C    basis set group =>   1
Atom   7H    basis set group =>   2
Atom   8C    basis set group =>   1
Atom   9H    basis set group =>   2
Atom  10C    basis set group =>   1
Atom  11H    basis set group =>   2
------------------------------------------------------------------------------
                           ORCA GTO INTEGRAL CALCULATION
------------------------------------------------------------------------------

                         BASIS SET STATISTICS AND STARTUP INFO

 # of primitive gaussian shells          ...  114
 # of primitive gaussian functions       ...  186
 # of contracted shells                  ...   48
 # of contracted basis functions         ...   96
 Highest angular momentum                ...    2
 Maximum contraction depth               ...    6
 Integral package used                   ... LIBINT
 Integral threshhold            Thresh   ...  1.000e-10
 Primitive cut-off              TCut     ...  1.000e-11


------------------------------ INTEGRAL EVALUATION ----------------------------


 * One electron integrals 
 Pre-screening matrix                    ... done
 Shell pair data                         ... done (   0.001 sec)

-------------------------------------------------------------------------------
                                 ORCA SCF
-------------------------------------------------------------------------------

------------
SCF SETTINGS
------------
Hamiltonian:
 Density Functional     Method          .... DFT(GTOs)
 Exchange Functional    Exchange        .... WB97X-D3
 Correlation Functional Correlation     .... WB97X-D3
 Gradients option       PostSCFGGA      .... off
 Hybrid DFT is turned on
   Fraction HF Exchange ScalHFX         ....  0.195728
   Scaling of DF-GGA-X  ScalDFX         ....  0.000000
   Scaling of DF-GGA-C  ScalDFC         ....  1.000000
   Scaling of DF-LDA-C  ScalLDAC        ....  1.000000
   Perturbative correction              ....  0.000000
 Long-range corrected/Screened/Range-Separated Hybrid DFT is turned on
   Amount of maximum screened exact exchange              ....  0.804272
   Range separation parameter mu (erf(mu*r12)/r12)        ....  0.250000


General Settings:
 Integral files         IntName         .... Scan_29
 Hartree-Fock type      HFTyp           .... RHF
 Total Charge           Charge          ....    0
 Multiplicity           Mult            ....    1
 Number of Electrons    NEL             ....   42
 Basis Dimension        Dim             ....   96
 Nuclear Repulsion      ENuc            ....    101.0264105734 Eh

Convergence Acceleration:
 DIIS                   CNVDIIS         .... on
   Start iteration      DIISMaxIt       ....     0
   Startup error        DIISStart       ....  0.200000
   # of expansion vecs  DIISMaxEq       ....     5
   Bias factor          DIISBfac        ....   1.050
   Max. coefficient     DIISMaxC        ....  10.000
 Newton-Raphson         CNVNR           .... off
 SOSCF                  CNVSOSCF        .... off
 Level Shifting         CNVShift        .... off
 Zerner damping         CNVZerner       .... off
 Static damping         CNVDamp         .... off
 Fernandez-Rico         CNVRico         .... off

SCF Procedure:
 Maximum # iterations   MaxIter         ....   999
 SCF integral mode      SCFMode         .... Direct
   Integral package                     .... LIBINT
 Reset frequeny         DirectResetFreq ....    20
 Integral Threshold     Thresh          ....  1.000e-10 Eh
 Primitive CutOff       TCut            ....  1.000e-11 Eh

Convergence Tolerance:
 Convergence Check Mode ConvCheckMode   .... All-Criteria
 Convergence forced     ConvForced      .... 0
 Energy Change          TolE            ....  1.000e-06 Eh
 Max Density Change     TolMaxP         ....  1.000e-05
 RMS Density Change     TolRMSP         ....  1.000e-06
 DIIS Error             TolErr          ....  1.000e-06


Diagonalization of the overlap matrix:
Smallest eigenvalue                        ... 4.333e-02
Time for diagonalization                   ...    0.003 sec
Threshold for overlap eigenvalues          ... 1.000e-08
Number of eigenvalues below threshold      ... 0
Time for construction of square roots      ...    0.012 sec
Total time needed                          ...    0.015 sec

-------------------
DFT GRID GENERATION
-------------------

General Integration Accuracy     IntAcc      ...  4.340
Radial Grid Type                 RadialGrid  ... Gauss-Chebyshev
Angular Grid (max. acc.)         AngularGrid ... Lebedev-110
Angular grid pruning method      GridPruning ... 3 (G Style)
Weight generation scheme         WeightScheme... Becke
Basis function cutoff            BFCut       ...    1.0000e-10
Integration weight cutoff        WCut        ...    1.0000e-14
Grids for H and He will be reduced by one unit

# of grid points (after initial pruning)     ...  14700 (   0.0 sec)
# of grid points (after weights+screening)   ...  14178 (   0.2 sec)
nearest neighbour list constructed           ...    0.0 sec
Grid point re-assignment to atoms done       ...    0.0 sec
Grid point division into batches done        ...    0.1 sec
Reduced shell lists constructed in    0.5 sec

Total number of grid points                  ...    14178
Total number of batches                      ...      228
Average number of points per batch           ...       62
Average number of grid points per atom       ...     1182
Average number of shells per batch           ...    24.79 (51.64%)
Average number of basis functions per batch  ...    48.26 (50.27%)
Average number of large shells per batch     ...    15.75 (63.55%)
Average number of large basis fcns per batch ...    30.97 (64.18%)
Maximum spatial batch extension              ...  21.52, 25.60, 19.52 au
Average spatial batch extension              ...   5.07,  5.03,  4.30 au

Time for grid setup =    0.823 sec

------------------------------
INITIAL GUESS: MODEL POTENTIAL
------------------------------
Loading Hartree-Fock densities                     ... done
Calculating cut-offs                               ... done
Setting up the integral package                    ... done
Initializing the effective Hamiltonian             ... done
Starting the Coulomb interaction                   ... done (   0.1 sec)
Reading the grid                                   ... done
Mapping shells                                     ... done
Starting the XC term evaluation                    ... done (   0.3 sec)
  promolecular density results
     # of electrons  =     41.997317788
     EX              =    -31.547752444
     EC              =     -1.144621986
     EX+EC           =    -32.692374431
Transforming the Hamiltonian                       ... done (   0.0 sec)
Diagonalizing the Hamiltonian                      ... done (   0.0 sec)
Back transforming the eigenvectors                 ... done (   0.0 sec)
Now organizing SCF variables                       ... done
                      ------------------
                      INITIAL GUESS DONE (   1.4 sec)
                      ------------------
--------------
SCF ITERATIONS
--------------
ITER       Energy         Delta-E        Max-DP      RMS-DP      [F,P]   Gradient Norm
               ***  Starting incremental Fock matrix formation  ***
                             ****Resetting KDIIS****
                             ****Turning on KDIIS(Cayley)****
  0   -230.5478797867   0.000000000000 0.00449833  0.00029819  0.0277548   0.025788889
  1   -230.5523170547  -0.004437267966 0.00844861  0.00070861  0.0249241   0.023366984
  2   -230.5615758096  -0.009258754911 0.02045545  0.00161929  0.0204482   0.018924381
  3   -230.5764286193  -0.014852809694 0.03274229  0.00297780  0.0119314   0.011411353
  4   -230.5857094191  -0.009280799834 0.00359863  0.00032078  0.0017535   0.001375641
  5   -230.5858808805  -0.000171461411 0.00043731  0.00003504  0.0002665   0.000171980
  6   -230.5858840521  -0.000003171596 0.00031721  0.00001604  0.0001170   0.000085652
                          ***Energy convergence achieved***
  7   -230.5858848104  -0.000000758287 0.00019598  0.00001030  0.0000738   0.000060371

            ***Energy convergence in two consecutive cycles with***
                    ***'reasonable' density convergence***
                       *** signaling convergence ***

                    *** KDIIS BlockDiag ( 0.002 sec) ***

               *****************************************************
               *                     SUCCESS                       *
               *           SCF CONVERGED AFTER   8 CYCLES          *
               *****************************************************

Setting up the final grid:

General Integration Accuracy     IntAcc      ...  4.670
Radial Grid Type                 RadialGrid  ... Gauss-Chebyshev
Angular Grid (max. acc.)         AngularGrid ... Lebedev-302
Angular grid pruning method      GridPruning ... 3 (G Style)
Weight generation scheme         WeightScheme... Becke
Basis function cutoff            BFCut       ...    1.0000e-10
Integration weight cutoff        WCut        ...    1.0000e-14
Grids for H and He will be reduced by one unit

# of grid points (after initial pruning)     ...  57636 (   0.0 sec)
# of grid points (after weights+screening)   ...  55632 (   0.1 sec)
nearest neighbour list constructed           ...    0.0 sec
Grid point re-assignment to atoms done       ...    0.0 sec
Grid point division into batches done        ...    0.8 sec
Reduced shell lists constructed in    1.6 sec

Total number of grid points                  ...    55632
Total number of batches                      ...      876
Average number of points per batch           ...       63
Average number of grid points per atom       ...     4636
Average number of shells per batch           ...    21.65 (45.11%)
Average number of basis functions per batch  ...    41.99 (43.74%)
Average number of large shells per batch     ...    13.45 (62.13%)
Average number of large basis fcns per batch ...    26.08 (62.11%)
Maximum spatial batch extension              ...  18.86, 21.77, 19.07 au
Average spatial batch extension              ...   3.16,  3.23,  2.91 au

Final grid set up in    1.8 sec
Final integration                            ... done (   1.4 sec)
Change in XC energy                          ...     0.000610046
Integrated number of electrons               ...    42.000001788
Previous integrated no of electrons          ...    42.004063114

----------------
TOTAL SCF ENERGY
----------------

Total Energy       :         -230.58527512 Eh           -6274.54433 eV

Components:
Nuclear Repulsion  :          101.02641057 Eh            2749.06839 eV
Electronic Energy  :         -331.61168569 Eh           -9023.61272 eV
One Electron Energy:         -507.59394416 Eh          -13812.33343 eV
Two Electron Energy:          175.98225847 Eh            4788.72071 eV

Virial components:
Potential Energy   :         -459.56245269 Eh          -12505.33010 eV
Kinetic Energy     :          228.97717757 Eh            6230.78577 eV
Virial Ratio       :            2.00702296


DFT components:
N(Alpha)           :       21.000000893780 electrons
N(Beta)            :       21.000000893780 electrons
N(Total)           :       42.000001787561 electrons
E(XC)              :      -22.729891165519 Eh       

---------------
SCF CONVERGENCE
---------------

  Last Energy change         ...   -3.5051e-07  Tolerance :   1.0000e-06
  Last MAX-Density change    ...    9.2656e-05  Tolerance :   1.0000e-05
  Last RMS-Density change    ...    7.6005e-06  Tolerance :   1.0000e-06
  Last DIIS Error            ...    6.8512e-05  Tolerance :   1.0000e-06

             **** THE GBW FILE WAS UPDATED (Scan_29.gbw) ****
             **** DENSITY FILE WAS UPDATED (Scan_29.scfp.tmp) ****
             **** ENERGY FILE WAS UPDATED (Scan_29.en.tmp) ****
----------------
ORBITAL ENERGIES
----------------

  NO   OCC          E(Eh)            E(eV) 
   0   2.0000     -10.409479      -283.2563 
   1   2.0000     -10.409465      -283.2559 
   2   2.0000     -10.409382      -283.2537 
   3   2.0000     -10.409366      -283.2533 
   4   2.0000     -10.408824      -283.2385 
   5   2.0000     -10.408802      -283.2379 
   6   2.0000      -0.751224       -20.4419 
   7   2.0000      -0.747662       -20.3449 
   8   2.0000      -0.747472       -20.3398 
   9   2.0000      -0.739391       -20.1199 
  10   2.0000      -0.739211       -20.1149 
  11   2.0000      -0.734850       -19.9963 
  12   2.0000      -0.410654       -11.1745 
  13   2.0000      -0.410462       -11.1692 
  14   2.0000      -0.410413       -11.1679 
  15   2.0000      -0.408745       -11.1225 
  16   2.0000      -0.408572       -11.1178 
  17   2.0000      -0.407150       -11.0791 
  18   2.0000      -0.289404        -7.8751 
  19   2.0000      -0.248762        -6.7692 
  20   2.0000      -0.248543        -6.7632 
  21   0.0000      -0.089858        -2.4452 
  22   0.0000      -0.089090        -2.4243 
  23   0.0000      -0.056254        -1.5308 
  24   0.0000      -0.037844        -1.0298 
  25   0.0000      -0.037611        -1.0234 
  26   0.0000      -0.035879        -0.9763 
  27   0.0000      -0.025208        -0.6860 
  28   0.0000      -0.024736        -0.6731 
  29   0.0000      -0.018552        -0.5048 
  30   0.0000       0.211551         5.7566 
  31   0.0000       0.219023         5.9599 
  32   0.0000       0.219141         5.9631 
  33   0.0000       0.234018         6.3680 
  34   0.0000       0.234074         6.3695 
  35   0.0000       0.241434         6.5697 
  36   0.0000       0.565105        15.3773 
  37   0.0000       0.565772        15.3954 
  38   0.0000       0.573211        15.5979 
  39   0.0000       0.573491        15.6055 
  40   0.0000       0.580876        15.8065 
  41   0.0000       0.581143        15.8137 
  42   0.0000       0.611433        16.6379 
  43   0.0000       0.632584        17.2135 
  44   0.0000       0.632935        17.2230 
  45   0.0000       0.659536        17.9469 
  46   0.0000       0.659600        17.9486 
  47   0.0000       0.679487        18.4898 
  48   0.0000       0.679772        18.4975 
  49   0.0000       0.681796        18.5526 
  50   0.0000       0.681904        18.5556 
  51   0.0000       0.684932        18.6379 
  52   0.0000       0.697240        18.9729 
  53   0.0000       0.710872        19.3438 
  54   0.0000       0.856425        23.3045 
  55   0.0000       0.875118        23.8132 
  56   0.0000       0.875329        23.8189 
  57   0.0000       0.910235        24.7687 
  58   0.0000       0.910299        24.7705 
  59   0.0000       0.936365        25.4798 
  60   0.0000       0.965400        26.2699 
  61   0.0000       0.971007        26.4224 
  62   0.0000       0.971130        26.4258 
  63   0.0000       1.003134        27.2967 
  64   0.0000       1.003302        27.3012 
  65   0.0000       1.035770        28.1847 
  66   0.0000       1.746777        47.5322 
  67   0.0000       1.746785        47.5324 
  68   0.0000       1.747020        47.5388 
  69   0.0000       1.747037        47.5393 
  70   0.0000       1.747478        47.5513 
  71   0.0000       1.747508        47.5521 
  72   0.0000       1.760663        47.9101 
  73   0.0000       1.761334        47.9283 
  74   0.0000       1.761372        47.9294 
  75   0.0000       1.762221        47.9525 
  76   0.0000       1.762258        47.9535 
  77   0.0000       1.762373        47.9566 
  78   0.0000       1.775021        48.3008 
  79   0.0000       1.775973        48.3267 
  80   0.0000       1.776876        48.3513 
  81   0.0000       1.776963        48.3536 
  82   0.0000       1.777018        48.3551 
  83   0.0000       1.777548        48.3696 
  84   0.0000       1.779800        48.4308 
  85   0.0000       1.780574        48.4519 
  86   0.0000       1.780905        48.4609 
  87   0.0000       1.782342        48.5000 
  88   0.0000       1.783309        48.5263 
  89   0.0000       1.783571        48.5334 
  90   0.0000       2.197055        59.7849 
  91   0.0000       2.200422        59.8765 
  92   0.0000       2.200638        59.8824 
  93   0.0000       2.210688        60.1559 
  94   0.0000       2.210876        60.1610 
  95   0.0000       2.217223        60.3337 

                    ********************************
                    * MULLIKEN POPULATION ANALYSIS *
                    ********************************

-----------------------
MULLIKEN ATOMIC CHARGES
-----------------------
   0 C :   -0.172586
   1 H :    0.172048
   2 C :   -0.171717
   3 H :    0.172144
   4 C :   -0.171852
   5 H :    0.172170
   6 C :   -0.172937
   7 H :    0.171938
   8 C :   -0.171811
   9 H :    0.172136
  10 C :   -0.171724
  11 H :    0.172193
Sum of atomic charges:   -0.0000000

--------------------------------
MULLIKEN REDUCED ORBITAL CHARGES
--------------------------------
  0 C s       :     3.917698  s :     3.917698
      pz      :     1.235686  p :     2.240122
      px      :     0.022558
      py      :     0.981879
      dz2     :     0.014101  d :     0.014766
      dxz     :     0.000013
      dyz     :     0.000507
      dx2y2   :     0.000068
      dxy     :     0.000077
  1 H s       :     0.827952  s :     0.827952
  2 C s       :     3.917436  s :     3.917436
      pz      :     1.236079  p :     2.239524
      px      :     0.683923
      py      :     0.319523
      dz2     :     0.014095  d :     0.014757
      dxz     :     0.000351
      dyz     :     0.000163
      dx2y2   :     0.000079
      dxy     :     0.000069
  3 H s       :     0.827856  s :     0.827856
  4 C s       :     3.917444  s :     3.917444
      pz      :     1.236087  p :     2.239643
      px      :     0.810100
      py      :     0.193456
      dz2     :     0.014101  d :     0.014765
      dxz     :     0.000416
      dyz     :     0.000099
      dx2y2   :     0.000075
      dxy     :     0.000073
  5 H s       :     0.827830  s :     0.827830
  6 C s       :     3.917631  s :     3.917631
      pz      :     1.235563  p :     2.240544
      px      :     0.022542
      py      :     0.982439
      dz2     :     0.014100  d :     0.014763
      dxz     :     0.000013
      dyz     :     0.000505
      dx2y2   :     0.000068
      dxy     :     0.000077
  7 H s       :     0.828062  s :     0.828062
  8 C s       :     3.917414  s :     3.917414
      pz      :     1.236071  p :     2.239641
      px      :     0.684295
      py      :     0.319275
      dz2     :     0.014095  d :     0.014756
      dxz     :     0.000351
      dyz     :     0.000162
      dx2y2   :     0.000078
      dxy     :     0.000070
  9 H s       :     0.827864  s :     0.827864
 10 C s       :     3.917478  s :     3.917478
      pz      :     1.236113  p :     2.239480
      px      :     0.809801
      py      :     0.193566
      dz2     :     0.014101  d :     0.014766
      dxz     :     0.000417
      dyz     :     0.000099
      dx2y2   :     0.000077
      dxy     :     0.000072
 11 H s       :     0.827807  s :     0.827807


                     *******************************
                     * LOEWDIN POPULATION ANALYSIS *
                     *******************************

----------------------
LOEWDIN ATOMIC CHARGES
----------------------
   0 C :   -0.119345
   1 H :    0.118822
   2 C :   -0.118579
   3 H :    0.118986
   4 C :   -0.118678
   5 H :    0.118984
   6 C :   -0.119712
   7 H :    0.118762
   8 C :   -0.118669
   9 H :    0.118985
  10 C :   -0.118549
  11 H :    0.118992

-------------------------------
LOEWDIN REDUCED ORBITAL CHARGES
-------------------------------
  0 C s       :     3.750269  s :     3.750269
      pz      :     1.342441  p :     2.349145
      px      :     0.023592
      py      :     0.983111
      dz2     :     0.019255  d :     0.019931
      dxz     :     0.000013
      dyz     :     0.000505
      dx2y2   :     0.000073
      dxy     :     0.000086
  1 H s       :     0.881178  s :     0.881178
  2 C s       :     3.750228  s :     3.750228
      pz      :     1.342686  p :     2.348433
      px      :     0.685102
      py      :     0.320645
      dz2     :     0.019245  d :     0.019919
      dxz     :     0.000350
      dyz     :     0.000162
      dx2y2   :     0.000088
      dxy     :     0.000074
  3 H s       :     0.881014  s :     0.881014
  4 C s       :     3.750234  s :     3.750234
      pz      :     1.342665  p :     2.348519
      px      :     0.811304
      py      :     0.194551
      dz2     :     0.019249  d :     0.019925
      dxz     :     0.000414
      dyz     :     0.000099
      dx2y2   :     0.000083
      dxy     :     0.000080
  5 H s       :     0.881016  s :     0.881016
  6 C s       :     3.750211  s :     3.750211
      pz      :     1.342344  p :     2.349571
      px      :     0.023574
      py      :     0.983653
      dz2     :     0.019255  d :     0.019929
      dxz     :     0.000013
      dyz     :     0.000503
      dx2y2   :     0.000072
      dxy     :     0.000086
  7 H s       :     0.881238  s :     0.881238
  8 C s       :     3.750212  s :     3.750212
      pz      :     1.342674  p :     2.348540
      px      :     0.685457
      py      :     0.320409
      dz2     :     0.019245  d :     0.019918
      dxz     :     0.000349
      dyz     :     0.000162
      dx2y2   :     0.000086
      dxy     :     0.000075
  9 H s       :     0.881015  s :     0.881015
 10 C s       :     3.750257  s :     3.750257
      pz      :     1.342693  p :     2.348367
      px      :     0.811023
      py      :     0.194651
      dz2     :     0.019249  d :     0.019926
      dxz     :     0.000415
      dyz     :     0.000099
      dx2y2   :     0.000084
      dxy     :     0.000078
 11 H s       :     0.881008  s :     0.881008


                      *****************************
                      * MAYER POPULATION ANALYSIS *
                      *****************************

  NA   - Mulliken gross atomic population
  ZA   - Total nuclear charge
  QA   - Mulliken gross atomic charge
  VA   - Mayer's total valence
  BVA  - Mayer's bonded valence
  FA   - Mayer's free valence

  ATOM       NA         ZA         QA         VA         BVA        FA
  0 C      6.1726     6.0000    -0.1726     1.9577     1.9577    -0.0000
  1 H      0.8280     1.0000     0.1720     0.9058     0.9058     0.0000
  2 C      6.1717     6.0000    -0.1717     1.9595     1.9595    -0.0000
  3 H      0.8279     1.0000     0.1721     0.9060     0.9060    -0.0000
  4 C      6.1719     6.0000    -0.1719     1.9598     1.9598     0.0000
  5 H      0.8278     1.0000     0.1722     0.9060     0.9060    -0.0000
  6 C      6.1729     6.0000    -0.1729     1.9578     1.9578    -0.0000
  7 H      0.8281     1.0000     0.1719     0.9058     0.9058    -0.0000
  8 C      6.1718     6.0000    -0.1718     1.9596     1.9596    -0.0000
  9 H      0.8279     1.0000     0.1721     0.9060     0.9060     0.0000
 10 C      6.1717     6.0000    -0.1717     1.9596     1.9596     0.0000
 11 H      0.8278     1.0000     0.1722     0.9060     0.9060     0.0000

  Mayer bond orders larger than 0.1
B(  0-C ,  1-H ) :   0.9039 B(  0-C ,  2-C ) :   0.4567 B(  0-C , 10-C ) :   0.4566 
B(  2-C ,  3-H ) :   0.9040 B(  2-C ,  4-C ) :   0.4598 B(  4-C ,  5-H ) :   0.9040 
B(  4-C ,  6-C ) :   0.4568 B(  6-C ,  7-H ) :   0.9039 B(  6-C ,  8-C ) :   0.4567 
B(  8-C ,  9-H ) :   0.9040 B(  8-C , 10-C ) :   0.4599 B( 10-C , 11-H ) :   0.9040 


-------
TIMINGS
-------

Total SCF time: 0 days 0 hours 0 min 31 sec 

Total time                  ....      31.146 sec
Sum of individual times     ....      30.428 sec  ( 97.7%)

Fock matrix formation       ....      27.083 sec  ( 87.0%)
  XC integration            ....       5.434 sec  ( 20.1% of F)
    Basis function eval.    ....       1.764 sec  ( 32.5% of XC)
    Density eval.           ....       0.397 sec  (  7.3% of XC)
    XC-Functional eval.     ....       1.560 sec  ( 28.7% of XC)
    XC-Potential eval.      ....       0.382 sec  (  7.0% of XC)
Diagonalization             ....       0.141 sec  (  0.5%)
Density matrix formation    ....       0.001 sec  (  0.0%)
Population analysis         ....       0.039 sec  (  0.1%)
Initial guess               ....       0.539 sec  (  1.7%)
Orbital Transformation      ....       0.000 sec  (  0.0%)
Orbital Orthonormalization  ....       0.000 sec  (  0.0%)
DIIS solution               ....       0.000 sec  (  0.0%)
Grid generation             ....       2.625 sec  (  8.4%)


-------------------------------------------------------------------------------
                          DFT DISPERSION CORRECTION                            
                                                                               
                              DFTD3 V3.1  Rev 1                                
                              USING zero damping                               
-------------------------------------------------------------------------------
The omegaB97X-D3 functional is recognized. Fit by Chai et al.
Active option DFTDOPT                   ...         3   

molecular C6(AA) [au] = 2491.176766 


            DFT-D V3
 parameters
 s6 scaling factor         :     1.0000 
 rs6 scaling factor        :     1.2810 
 s8 scaling factor         :     1.0000 
 rs8 scaling factor        :     1.0940 
 Damping factor alpha6     :    14.0000 
 Damping factor alpha8     :    16.0000 
 ad hoc parameters k1-k3   :    16.0000     1.3333    -4.0000 

 Edisp/kcal,au: -1.740539759026  -0.002773726366 
 E6   /kcal   :  -0.778584890 
 E8   /kcal   :  -0.961954869 
 % E8         :  55.267618239 

-------------------------   ----------------
Dispersion correction           -0.002773726
-------------------------   ----------------


-------------------------   --------------------
FINAL SINGLE POINT ENERGY      -230.588048841472
-------------------------   --------------------


                            ***************************************
                            *     ORCA property calculations      *
                            ***************************************

                                    ---------------------
                                    Active property flags
                                    ---------------------
   (+) Dipole Moment


------------------------------------------------------------------------------
                       ORCA ELECTRIC PROPERTIES CALCULATION
------------------------------------------------------------------------------

Dipole Moment Calculation                       ... on
Quadrupole Moment Calculation                   ... off
Polarizability Calculation                      ... off
GBWName                                         ... Scan_29.gbw
Electron density file                           ... Scan_29.scfp.tmp

-------------
DIPOLE MOMENT
-------------
                                X             Y             Z
Electronic contribution:      0.00817      -0.00134      -0.00012
Nuclear contribution   :     -0.01218       0.00210       0.00000
                        -----------------------------------------
Total Dipole Moment    :     -0.00401       0.00076      -0.00012
                        -----------------------------------------
Magnitude (a.u.)       :      0.00408
Magnitude (Debye)      :      0.01037


Timings for individual modules:

Sum of individual times         ...       32.272 sec (=   0.538 min)
GTO integral calculation        ...        1.004 sec (=   0.017 min)   3.1 %
SCF iterations                  ...       31.267 sec (=   0.521 min)  96.9 %
                             ****ORCA TERMINATED NORMALLY****
TOTAL RUN TIME: 0 days 0 hours 0 minutes 33 seconds 501 msec
