
                                 *****************
                                 * O   R   C   A *
                                 *****************

           --- An Ab Initio, DFT and Semiempirical electronic structure package ---

                  #######################################################
                  #                        -***-                        #
                  #  Department of molecular theory and spectroscopy    #
                  #              Directorship: Frank Neese              #
                  # Max Planck Institute for Chemical Energy Conversion #
                  #                  D-45470 Muelheim/Ruhr              #
                  #                       Germany                       #
                  #                                                     #
                  #                  All rights reserved                #
                  #                        -***-                        #
                  #######################################################


                         Program Version 4.0.0.2 - RELEASE -


 With contributions from (in alphabetic order):
   Daniel Aravena         : Magnetic Properties
   Michael Atanasov       : Ab Initio Ligand Field Theory
   Ute Becker             : Parallelization
   Martin Brehm           : Molecular dynamics
   Dmytro Bykov           : SCF Hessian
   Vijay G. Chilkuri      : MRCI spin determinant printing
   Dipayan Datta          : RHF DLPNO-CCSD density
   Achintya Kumar Dutta   : EOM-CC, STEOM-CC
   Dmitry Ganyushin       : Spin-Orbit,Spin-Spin,Magnetic field MRCI
   Yang Guo               : DLPNO-NEVPT2, CIM, IAO-localization
   Andreas Hansen         : Spin unrestricted coupled pair/coupled cluster methods
   Lee Huntington         : MR-EOM, pCC
   Robert Izsak           : Overlap fitted RIJCOSX, COSX-SCS-MP3, EOM
   Christian Kollmar      : KDIIS, OOCD, Brueckner-CCSD(T), CCSD density
   Simone Kossmann        : Meta GGA functionals, TD-DFT gradient, OOMP2, MP2 Hessian
   Martin Krupicka        : AUTO-CI
   Dagmar Lenk            : GEPOL surface
   Dimitrios Liakos       : Extrapolation schemes; parallel MDCI
   Dimitrios Manganas     : ROCIS; embedding schemes
   Dimitrios Pantazis     : SARC Basis sets
   Taras Petrenko         : DFT Hessian,TD-DFT gradient, ASA, ECA, R-Raman, ABS, FL, XAS/XES, NRVS
   Peter Pinski           : DLPNO-MP2
   Christoph Reimann      : Effective Core Potentials
   Marius Retegan         : Local ZFS, SOC
   Christoph Riplinger    : Optimizer, TS searches, QM/MM, DLPNO-CCSD(T), (RO)-DLPNO pert. Triples
   Tobias Risthaus        : Range-separated hybrids, TD-DFT gradient, RPA, STAB
   Michael Roemelt        : Restricted open shell CIS
   Masaaki Saitow         : Open-shell DLPNO
   Barbara Sandhoefer     : DKH picture change effects
   Kantharuban Sivalingam : CASSCF convergence, NEVPT2, FIC-MRCI
   Georgi Stoychev        : AutoAux
   Boris Wezisla          : Elementary symmetry handling
   Frank Wennmohs         : Technical directorship


 We gratefully acknowledge several colleagues who have allowed us to
 interface, adapt or use parts of their codes:
   Stefan Grimme, W. Hujo, H. Kruse,             : VdW corrections, initial TS optimization,
                  C. Bannwarth                     DFT functionals, gCP, sTDA/sTD-DF
   Ed Valeev                                     : LibInt (2-el integral package), F12 methods
   Garnet Chan, S. Sharma, J. Yang, R. Olivares  : DMRG
   Ulf Ekstrom                                   : XCFun DFT Library
   Mihaly Kallay                                 : mrcc  (arbitrary order and MRCC methods)
   Jiri Pittner, Ondrej Demel                    : Mk-CCSD
   Frank Weinhold                                : gennbo (NPA and NBO analysis)
   Christopher J. Cramer and Donald G. Truhlar   : smd solvation model


 Your calculation uses the libint2 library for the computation of 2-el integrals
 For citations please refer to: http://libint.valeyev.net

 This ORCA versions uses:
   CBLAS   interface :  Fast vector & matrix operations
   LAPACKE interface :  Fast linear algebra routines
   SCALAPACK package :  Parallel linear algebra routines


Your calculation utilizes the atom-pairwise dispersion correction
with the zero-damping scheme (D30)
Cite in your paper:
S.Grimme, J.Antony, S.Ehrlich and H.Krieg, J.Chem.Phys., 132, (2010), 154104 
   

XCFun DFT library Copyright 2009-2010 Ulf Ekstrom and contributors.
See http://admol.org/xcfun for more information. This is free soft-
ware; see the source code for copying conditions. There is ABSOLUTELY
NO WARRANTY; not even for MERCHANTABILITY or FITNESS FOR A PARTICULAR
PURPOSE. For details see the documentation. Scientific users of this 
library should cite U. Ekstrom, L. Visscher, R. Bast, A. J. Thorvald-
sen and K. Ruud; J.Chem.Theor.Comp. 2010, DOI: 10.1021/ct100117s
XCFun Version 0.99 
Your calculation utilizes the basis: 6-31G(d)
   H-He, Li-Ne : W. J. Hehre, R. Ditchfield and J.A. Pople, J. Chem. Phys. 56, 2257 (1972).
                 Note: He and Ne are unpublished basis sets taken from the Gaussian program.
                 Note: Li and B from J. D. Dill and J. A. Pople, J. Chem. Phys. 62, 2921 (1975).
   Na - Ar     : M. M. Francl, W. J. Pietro, W. J. Hehre, J. S. Binkley, M. S. Gordon, 
                 D. J. DeFrees and J. A. Pople, J. Chem. Phys. 77, 3654 (1982).
   K - Zn      : V. A. Rassolov, J. A. Pople, M. A. Ratner, and T. L. Windus, J. Chem. Phys. 109, 1223 (1998).

================================================================================
                                        WARNINGS
                       Please study these warnings very carefully!
================================================================================

Warning: TCutStore was < 0. Adjusted to Thresh (uncritical)

INFO   : the flag for use of LIBINT has been found!

================================================================================
                                       INPUT FILE
================================================================================
NAME = initial3.inp
|  1> ! WB97X-D3 6-31G(d) VerySlowConv
|  2> ! KDIIS NOSOSCF
|  3> %base "Scan_3"
|  4> 
|  5> %scf
|  6> maxiter 999
|  7> end
|  8> 
|  9> * xyz 0 1
| 10> C          1.292595102696   -2.832021687976   -0.000000000000
| 11> H          2.401066071429   -2.916881808539    0.000000000000
| 12> C          0.788326737255   -1.780578218958   -0.000000000000
| 13> H          1.416053247573   -0.863044264712   -0.000000000000
| 14> C         -0.374384200194   -1.691565693557   -0.000000000000
| 15> H         -0.855128660098   -0.689171614437   -0.000000000000
| 16> C         -1.032826769373   -2.653996645396   -0.000000000000
| 17> H         -2.141297738078   -2.569136524602   -0.000000000000
| 18> C         -0.528558403936   -3.705440114337   -0.000000000000
| 19> H         -1.156284914087   -4.622974068708   -0.000000000000
| 20> C          0.634152533583   -3.794452639772   -0.000000000000
| 21> H          1.114896993229   -4.796846719005    0.000000000000
| 22> **                         ****END OF INPUT****
================================================================================

                       ****************************
                       * Single Point Calculation *
                       ****************************

---------------------------------
CARTESIAN COORDINATES (ANGSTROEM)
---------------------------------
  C      1.292595   -2.832022   -0.000000
  H      2.401066   -2.916882    0.000000
  C      0.788327   -1.780578   -0.000000
  H      1.416053   -0.863044   -0.000000
  C     -0.374384   -1.691566   -0.000000
  H     -0.855129   -0.689172   -0.000000
  C     -1.032827   -2.653997   -0.000000
  H     -2.141298   -2.569137   -0.000000
  C     -0.528558   -3.705440   -0.000000
  H     -1.156285   -4.622974   -0.000000
  C      0.634153   -3.794453   -0.000000
  H      1.114897   -4.796847    0.000000

----------------------------
CARTESIAN COORDINATES (A.U.)
----------------------------
  NO LB      ZA    FRAG     MASS         X           Y           Z
   0 C     6.0000    0    12.011    2.442651   -5.351745   -0.000000
   1 H     1.0000    0     1.008    4.537357   -5.512108    0.000000
   2 C     6.0000    0    12.011    1.489722   -3.364805   -0.000000
   3 H     1.0000    0     1.008    2.675953   -1.630917   -0.000000
   4 C     6.0000    0    12.011   -0.707484   -3.196596   -0.000000
   5 H     1.0000    0     1.008   -1.615959   -1.302346   -0.000000
   6 C     6.0000    0    12.011   -1.951760   -5.015327   -0.000000
   7 H     1.0000    0     1.008   -4.046466   -4.854964   -0.000000
   8 C     6.0000    0    12.011   -0.998831   -7.002267   -0.000000
   9 H     1.0000    0     1.008   -2.185062   -8.736155   -0.000000
  10 C     6.0000    0    12.011    1.198375   -7.170476   -0.000000
  11 H     1.0000    0     1.008    2.106850   -9.064727    0.000000

--------------------------------
INTERNAL COORDINATES (ANGSTROEM)
--------------------------------
 C      0   0   0     0.000000000000     0.00000000     0.00000000
 H      1   0   0     1.111714499584     0.00000000     0.00000000
 C      1   2   0     1.166113181867   119.99999984     0.00000000
 H      3   1   2     1.111714499748   119.99999980     0.00000000
 C      3   1   2     1.166113182218   120.00000028   180.00000085
 H      5   3   1     1.111714498234   120.00000023   180.00000000
 C      5   3   1     1.166113182313   119.99999953     0.00000000
 H      7   5   3     1.111714499574   119.99999996   180.00000000
 C      7   5   3     1.166113181796   120.00000019     0.00000000
 H      9   7   5     1.111714499757   119.99999981   180.00000000
 C      1   2   3     1.166113182241   119.99999997   180.00000085
 H     11   1   2     1.111714498224   120.00000026     0.00000000

---------------------------
INTERNAL COORDINATES (A.U.)
---------------------------
 C      0   0   0     0.000000000000     0.00000000     0.00000000
 H      1   0   0     2.100835943324     0.00000000     0.00000000
 C      1   2   0     2.203634554885   119.99999984     0.00000000
 H      3   1   2     2.100835943633   119.99999980     0.00000000
 C      3   1   2     2.203634555547   120.00000028   180.00000085
 H      5   3   1     2.100835940772   120.00000023   180.00000000
 C      5   3   1     2.203634555727   119.99999953     0.00000000
 H      7   5   3     2.100835943304   119.99999996   180.00000000
 C      7   5   3     2.203634554751   120.00000019     0.00000000
 H      9   7   5     2.100835943650   119.99999981   180.00000000
 C      1   2   3     2.203634555590   119.99999997   180.00000085
 H     11   1   2     2.100835940753   120.00000026     0.00000000

---------------------
BASIS SET INFORMATION
---------------------
There are 2 groups of distinct atoms

 Group   1 Type C   : 10s4p1d contracted to 3s2p1d pattern {631/31/1}
 Group   2 Type H   : 4s contracted to 2s pattern {31}

Atom   0C    basis set group =>   1
Atom   1H    basis set group =>   2
Atom   2C    basis set group =>   1
Atom   3H    basis set group =>   2
Atom   4C    basis set group =>   1
Atom   5H    basis set group =>   2
Atom   6C    basis set group =>   1
Atom   7H    basis set group =>   2
Atom   8C    basis set group =>   1
Atom   9H    basis set group =>   2
Atom  10C    basis set group =>   1
Atom  11H    basis set group =>   2
------------------------------------------------------------------------------
                           ORCA GTO INTEGRAL CALCULATION
------------------------------------------------------------------------------

                         BASIS SET STATISTICS AND STARTUP INFO

 # of primitive gaussian shells          ...  114
 # of primitive gaussian functions       ...  186
 # of contracted shells                  ...   48
 # of contracted basis functions         ...   96
 Highest angular momentum                ...    2
 Maximum contraction depth               ...    6
 Integral package used                   ... LIBINT
 Integral threshhold            Thresh   ...  1.000e-10
 Primitive cut-off              TCut     ...  1.000e-11


------------------------------ INTEGRAL EVALUATION ----------------------------


 * One electron integrals 
 Pre-screening matrix                    ... done
 Shell pair data                         ... done (   0.001 sec)

-------------------------------------------------------------------------------
                                 ORCA SCF
-------------------------------------------------------------------------------

------------
SCF SETTINGS
------------
Hamiltonian:
 Density Functional     Method          .... DFT(GTOs)
 Exchange Functional    Exchange        .... WB97X-D3
 Correlation Functional Correlation     .... WB97X-D3
 Gradients option       PostSCFGGA      .... off
 Hybrid DFT is turned on
   Fraction HF Exchange ScalHFX         ....  0.195728
   Scaling of DF-GGA-X  ScalDFX         ....  0.000000
   Scaling of DF-GGA-C  ScalDFC         ....  1.000000
   Scaling of DF-LDA-C  ScalLDAC        ....  1.000000
   Perturbative correction              ....  0.000000
 Long-range corrected/Screened/Range-Separated Hybrid DFT is turned on
   Amount of maximum screened exact exchange              ....  0.804272
   Range separation parameter mu (erf(mu*r12)/r12)        ....  0.250000


General Settings:
 Integral files         IntName         .... Scan_3
 Hartree-Fock type      HFTyp           .... RHF
 Total Charge           Charge          ....    0
 Multiplicity           Mult            ....    1
 Number of Electrons    NEL             ....   42
 Basis Dimension        Dim             ....   96
 Nuclear Repulsion      ENuc            ....    236.2023670663 Eh

Convergence Acceleration:
 DIIS                   CNVDIIS         .... on
   Start iteration      DIISMaxIt       ....     0
   Startup error        DIISStart       ....  0.200000
   # of expansion vecs  DIISMaxEq       ....     5
   Bias factor          DIISBfac        ....   1.050
   Max. coefficient     DIISMaxC        ....  10.000
 Newton-Raphson         CNVNR           .... off
 SOSCF                  CNVSOSCF        .... off
 Level Shifting         CNVShift        .... off
 Zerner damping         CNVZerner       .... off
 Static damping         CNVDamp         .... off
 Fernandez-Rico         CNVRico         .... off

SCF Procedure:
 Maximum # iterations   MaxIter         ....   999
 SCF integral mode      SCFMode         .... Direct
   Integral package                     .... LIBINT
 Reset frequeny         DirectResetFreq ....    20
 Integral Threshold     Thresh          ....  1.000e-10 Eh
 Primitive CutOff       TCut            ....  1.000e-11 Eh

Convergence Tolerance:
 Convergence Check Mode ConvCheckMode   .... All-Criteria
 Convergence forced     ConvForced      .... 0
 Energy Change          TolE            ....  1.000e-06 Eh
 Max Density Change     TolMaxP         ....  1.000e-05
 RMS Density Change     TolRMSP         ....  1.000e-06
 DIIS Error             TolErr          ....  1.000e-06


Diagonalization of the overlap matrix:
Smallest eigenvalue                        ... 9.806e-05
Time for diagonalization                   ...    0.002 sec
Threshold for overlap eigenvalues          ... 1.000e-08
Number of eigenvalues below threshold      ... 0
Time for construction of square roots      ...    0.012 sec
Total time needed                          ...    0.014 sec

-------------------
DFT GRID GENERATION
-------------------

General Integration Accuracy     IntAcc      ...  4.340
Radial Grid Type                 RadialGrid  ... Gauss-Chebyshev
Angular Grid (max. acc.)         AngularGrid ... Lebedev-110
Angular grid pruning method      GridPruning ... 3 (G Style)
Weight generation scheme         WeightScheme... Becke
Basis function cutoff            BFCut       ...    1.0000e-10
Integration weight cutoff        WCut        ...    1.0000e-14
Grids for H and He will be reduced by one unit

# of grid points (after initial pruning)     ...  14700 (   0.0 sec)
# of grid points (after weights+screening)   ...  13644 (   0.0 sec)
nearest neighbour list constructed           ...    0.0 sec
Grid point re-assignment to atoms done       ...    0.0 sec
Grid point division into batches done        ...    0.0 sec
Reduced shell lists constructed in    0.2 sec

Total number of grid points                  ...    13644
Total number of batches                      ...      220
Average number of points per batch           ...       62
Average number of grid points per atom       ...     1137
Average number of shells per batch           ...    39.31 (81.90%)
Average number of basis functions per batch  ...    81.63 (85.03%)
Average number of large shells per batch     ...    33.35 (84.84%)
Average number of large basis fcns per batch ...    69.96 (85.70%)
Maximum spatial batch extension              ...  18.50, 20.28, 30.80 au
Average spatial batch extension              ...   3.47,  3.77,  5.08 au

Time for grid setup =    0.274 sec

------------------------------
INITIAL GUESS: MODEL POTENTIAL
------------------------------
Loading Hartree-Fock densities                     ... done
Calculating cut-offs                               ... done
Setting up the integral package                    ... done
Initializing the effective Hamiltonian             ... done
Starting the Coulomb interaction                   ... done (   0.1 sec)
Reading the grid                                   ... done
Mapping shells                                     ... done
Starting the XC term evaluation                    ... done (   0.2 sec)
  promolecular density results
     # of electrons  =     42.007264113
     EX              =    -32.964940735
     EC              =     -1.431340068
     EX+EC           =    -34.396280803
Transforming the Hamiltonian                       ... done (   0.0 sec)
Diagonalizing the Hamiltonian                      ... done (   0.0 sec)
Back transforming the eigenvectors                 ... done (   0.0 sec)
Now organizing SCF variables                       ... done
                      ------------------
                      INITIAL GUESS DONE (   0.7 sec)
                      ------------------
--------------
SCF ITERATIONS
--------------
ITER       Energy         Delta-E        Max-DP      RMS-DP      [F,P]   Gradient Norm
               ***  Starting incremental Fock matrix formation  ***
                             ****Resetting KDIIS****
                             ****Turning on KDIIS(Cayley)****
  0   -231.2949478308   0.000000000000 0.03572260  0.00236273  0.1592212   0.136321940
  1   -231.4409800855  -0.146032254637 0.02518410  0.00212523  0.1315201   0.110330665
  2   -231.5333169952  -0.092336909729 0.04099058  0.00318406  0.1085291   0.090680220
  3   -231.6453451801  -0.112028184929 0.06424896  0.00452120  0.0690634   0.057628423
  4   -231.7196620900  -0.074316909867 0.01164516  0.00096418  0.0066872   0.005070975
  5   -231.7204120344  -0.000749944369 0.00691454  0.00060445  0.0021943   0.001410945
  6   -231.7204390372  -0.000027002831 0.00445676  0.00041262  0.0015939   0.001361832
  7   -231.7204967835  -0.000057746295 0.00099391  0.00008683  0.0003307   0.000305800
  8   -231.7204999703  -0.000003186819 0.00003917  0.00000343  0.0000216   0.000020685
                          ***Energy convergence achieved***
  9   -231.7204999759  -0.000000005605 0.00001556  0.00000117  0.0000120   0.000011999
                           ***RMSP convergence achieved***
                           ***MAXP convergence achieved***
                    *** KDIIS BlockDiag ( 0.001 sec) ***

               *****************************************************
               *                     SUCCESS                       *
               *           SCF CONVERGED AFTER  10 CYCLES          *
               *****************************************************

Setting up the final grid:

General Integration Accuracy     IntAcc      ...  4.670
Radial Grid Type                 RadialGrid  ... Gauss-Chebyshev
Angular Grid (max. acc.)         AngularGrid ... Lebedev-302
Angular grid pruning method      GridPruning ... 3 (G Style)
Weight generation scheme         WeightScheme... Becke
Basis function cutoff            BFCut       ...    1.0000e-10
Integration weight cutoff        WCut        ...    1.0000e-14
Grids for H and He will be reduced by one unit

# of grid points (after initial pruning)     ...  57636 (   0.0 sec)
# of grid points (after weights+screening)   ...  52870 (   0.1 sec)
nearest neighbour list constructed           ...    0.0 sec
Grid point re-assignment to atoms done       ...    0.0 sec
Grid point division into batches done        ...    0.2 sec
Reduced shell lists constructed in    0.8 sec

Total number of grid points                  ...    52870
Total number of batches                      ...      832
Average number of points per batch           ...       63
Average number of grid points per atom       ...     4406
Average number of shells per batch           ...    35.85 (74.69%)
Average number of basis functions per batch  ...    74.39 (77.49%)
Average number of large shells per batch     ...    29.88 (83.34%)
Average number of large basis fcns per batch ...    62.23 (83.65%)
Maximum spatial batch extension              ...  16.30, 19.73, 23.20 au
Average spatial batch extension              ...   2.46,  2.60,  2.93 au

Final grid set up in    0.9 sec
Final integration                            ... done (   0.9 sec)
Change in XC energy                          ...    -0.000098088
Integrated number of electrons               ...    41.999958125
Previous integrated no of electrons          ...    42.005978568

----------------
TOTAL SCF ENERGY
----------------

Total Energy       :         -231.72059806 Eh           -6305.43804 eV

Components:
Nuclear Repulsion  :          236.20236707 Eh            6427.39317 eV
Electronic Energy  :         -467.92296513 Eh          -12732.83121 eV
One Electron Energy:         -778.11684763 Eh          -21173.63587 eV
Two Electron Energy:          310.19388250 Eh            8440.80466 eV

Virial components:
Potential Energy   :         -467.39264493 Eh          -12718.40046 eV
Kinetic Energy     :          235.67204687 Eh            6412.96242 eV
Virial Ratio       :            1.98323327


DFT components:
N(Alpha)           :       20.999979062492 electrons
N(Beta)            :       20.999979062492 electrons
N(Total)           :       41.999958124983 electrons
E(XC)              :      -24.485875934036 Eh       

---------------
SCF CONVERGENCE
---------------

  Last Energy change         ...   -1.1345e-09  Tolerance :   1.0000e-06
  Last MAX-Density change    ...    8.6637e-06  Tolerance :   1.0000e-05
  Last RMS-Density change    ...    6.8260e-07  Tolerance :   1.0000e-06
  Last DIIS Error            ...    2.2978e-06  Tolerance :   1.0000e-06

             **** THE GBW FILE WAS UPDATED (Scan_3.gbw) ****
             **** DENSITY FILE WAS UPDATED (Scan_3.scfp.tmp) ****
             **** ENERGY FILE WAS UPDATED (Scan_3.en.tmp) ****
----------------
ORBITAL ENERGIES
----------------

  NO   OCC          E(Eh)            E(eV) 
   0   2.0000     -10.226970      -278.2900 
   1   2.0000     -10.225483      -278.2495 
   2   2.0000     -10.225295      -278.2444 
   3   2.0000     -10.222273      -278.1622 
   4   2.0000     -10.222082      -278.1570 
   5   2.0000     -10.220641      -278.1178 
   6   2.0000      -1.105180       -30.0735 
   7   2.0000      -0.907000       -24.6807 
   8   2.0000      -0.906921       -24.6786 
   9   2.0000      -0.731121       -19.8948 
  10   2.0000      -0.730892       -19.8886 
  11   2.0000      -0.683844       -18.6084 
  12   2.0000      -0.607276       -16.5248 
  13   2.0000      -0.566171       -15.4063 
  14   2.0000      -0.524314       -14.2673 
  15   2.0000      -0.524150       -14.2628 
  16   2.0000      -0.489050       -13.3077 
  17   2.0000      -0.403197       -10.9715 
  18   2.0000      -0.402791       -10.9605 
  19   2.0000      -0.374262       -10.1842 
  20   2.0000      -0.374013       -10.1774 
  21   0.0000       0.144111         3.9215 
  22   0.0000       0.144419         3.9298 
  23   0.0000       0.150945         4.1074 
  24   0.0000       0.224234         6.1017 
  25   0.0000       0.224819         6.1176 
  26   0.0000       0.312078         8.4921 
  27   0.0000       0.312410         8.5011 
  28   0.0000       0.322857         8.7854 
  29   0.0000       0.397930        10.8282 
  30   0.0000       0.459474        12.5029 
  31   0.0000       0.460051        12.5186 
  32   0.0000       0.513456        13.9719 
  33   0.0000       0.533363        14.5136 
  34   0.0000       0.534154        14.5351 
  35   0.0000       0.581926        15.8350 
  36   0.0000       0.635849        17.3023 
  37   0.0000       0.650631        17.7046 
  38   0.0000       0.650905        17.7120 
  39   0.0000       0.750485        20.4217 
  40   0.0000       0.750695        20.4274 
  41   0.0000       0.764426        20.8011 
  42   0.0000       0.788044        21.4438 
  43   0.0000       0.788958        21.4686 
  44   0.0000       0.797166        21.6920 
  45   0.0000       0.843855        22.9625 
  46   0.0000       0.849932        23.1278 
  47   0.0000       0.850297        23.1378 
  48   0.0000       0.882478        24.0134 
  49   0.0000       0.882657        24.0183 
  50   0.0000       0.919485        25.0205 
  51   0.0000       0.957095        26.0439 
  52   0.0000       0.957259        26.0484 
  53   0.0000       1.001240        27.2451 
  54   0.0000       1.176118        32.0038 
  55   0.0000       1.194651        32.5081 
  56   0.0000       1.194819        32.5127 
  57   0.0000       1.307947        35.5910 
  58   0.0000       1.308740        35.6126 
  59   0.0000       1.378851        37.5204 
  60   0.0000       1.391054        37.8525 
  61   0.0000       1.416620        38.5482 
  62   0.0000       1.416840        38.5542 
  63   0.0000       1.417399        38.5694 
  64   0.0000       1.607467        43.7414 
  65   0.0000       1.634629        44.4805 
  66   0.0000       1.635044        44.4918 
  67   0.0000       1.687424        45.9171 
  68   0.0000       1.687702        45.9247 
  69   0.0000       1.718813        46.7713 
  70   0.0000       1.761959        47.9453 
  71   0.0000       1.762189        47.9516 
  72   0.0000       2.078550        56.5602 
  73   0.0000       2.144730        58.3611 
  74   0.0000       2.235565        60.8328 
  75   0.0000       2.276806        61.9550 
  76   0.0000       2.277919        61.9853 
  77   0.0000       2.448169        66.6181 
  78   0.0000       2.449003        66.6408 
  79   0.0000       2.614834        71.1532 
  80   0.0000       2.616569        71.2005 
  81   0.0000       2.648780        72.0770 
  82   0.0000       2.649250        72.0898 
  83   0.0000       2.685630        73.0797 
  84   0.0000       2.685853        73.0858 
  85   0.0000       2.777188        75.5711 
  86   0.0000       2.841065        77.3093 
  87   0.0000       2.842044        77.3360 
  88   0.0000       3.033849        82.5552 
  89   0.0000       3.279917        89.2511 
  90   0.0000       3.284109        89.3652 
  91   0.0000       3.285275        89.3969 
  92   0.0000       3.476983        94.6135 
  93   0.0000       3.478647        94.6588 
  94   0.0000       3.542615        96.3995 
  95   0.0000       4.394784       119.5881 

                    ********************************
                    * MULLIKEN POPULATION ANALYSIS *
                    ********************************

-----------------------
MULLIKEN ATOMIC CHARGES
-----------------------
   0 C :   -0.140956
   1 H :    0.139339
   2 C :   -0.136219
   3 H :    0.137687
   4 C :   -0.136130
   5 H :    0.136279
   6 C :   -0.140956
   7 H :    0.139339
   8 C :   -0.136219
   9 H :    0.137687
  10 C :   -0.136130
  11 H :    0.136279
Sum of atomic charges:    0.0000000

--------------------------------
MULLIKEN REDUCED ORBITAL CHARGES
--------------------------------
  0 C s       :     3.016657  s :     3.016657
      pz      :     0.982444  p :     3.062800
      px      :     1.070148
      py      :     1.010208
      dz2     :     0.003492  d :     0.061499
      dxz     :     0.005320
      dyz     :     0.012334
      dx2y2   :     0.022229
      dxy     :     0.018123
  1 H s       :     0.860661  s :     0.860661
  2 C s       :     3.018207  s :     3.018207
      pz      :     0.982421  p :     3.056549
      px      :     1.026137
      py      :     1.047992
      dz2     :     0.003461  d :     0.061463
      dxz     :     0.010106
      dyz     :     0.007565
      dx2y2   :     0.018627
      dxy     :     0.021703
  3 H s       :     0.862313  s :     0.862313
  4 C s       :     3.017690  s :     3.017690
      pz      :     0.982140  p :     3.056907
      px      :     1.019194
      py      :     1.055573
      dz2     :     0.003494  d :     0.061533
      dxz     :     0.011046
      dyz     :     0.006623
      dx2y2   :     0.019724
      dxy     :     0.020645
  5 H s       :     0.863721  s :     0.863721
  6 C s       :     3.016657  s :     3.016657
      pz      :     0.982444  p :     3.062800
      px      :     1.070148
      py      :     1.010208
      dz2     :     0.003492  d :     0.061499
      dxz     :     0.005320
      dyz     :     0.012334
      dx2y2   :     0.022229
      dxy     :     0.018123
  7 H s       :     0.860661  s :     0.860661
  8 C s       :     3.018207  s :     3.018207
      pz      :     0.982421  p :     3.056549
      px      :     1.026137
      py      :     1.047992
      dz2     :     0.003461  d :     0.061463
      dxz     :     0.010106
      dyz     :     0.007565
      dx2y2   :     0.018627
      dxy     :     0.021703
  9 H s       :     0.862313  s :     0.862313
 10 C s       :     3.017690  s :     3.017690
      pz      :     0.982140  p :     3.056907
      px      :     1.019194
      py      :     1.055573
      dz2     :     0.003494  d :     0.061533
      dxz     :     0.011046
      dyz     :     0.006623
      dx2y2   :     0.019724
      dxy     :     0.020645
 11 H s       :     0.863721  s :     0.863721


                     *******************************
                     * LOEWDIN POPULATION ANALYSIS *
                     *******************************

----------------------
LOEWDIN ATOMIC CHARGES
----------------------
   0 C :   -0.126941
   1 H :    0.126842
   2 C :   -0.126705
   3 H :    0.126750
   4 C :   -0.126444
   5 H :    0.126499
   6 C :   -0.126941
   7 H :    0.126842
   8 C :   -0.126705
   9 H :    0.126750
  10 C :   -0.126444
  11 H :    0.126499

-------------------------------
LOEWDIN REDUCED ORBITAL CHARGES
-------------------------------
  0 C s       :     2.797934  s :     2.797934
      pz      :     0.959047  p :     3.157935
      px      :     1.045757
      py      :     1.153131
      dz2     :     0.010886  d :     0.171071
      dxz     :     0.007746
      dyz     :     0.033221
      dx2y2   :     0.069473
      dxy     :     0.049746
  1 H s       :     0.873158  s :     0.873158
  2 C s       :     2.797952  s :     2.797952
      pz      :     0.959209  p :     3.157612
      px      :     1.118900
      py      :     1.079503
      dz2     :     0.010866  d :     0.171141
      dxz     :     0.025149
      dyz     :     0.015838
      dx2y2   :     0.052108
      dxy     :     0.067180
  3 H s       :     0.873250  s :     0.873250
  4 C s       :     2.797957  s :     2.797957
      pz      :     0.958834  p :     3.157387
      px      :     1.133887
      py      :     1.064666
      dz2     :     0.010889  d :     0.171100
      dxz     :     0.028533
      dyz     :     0.012423
      dx2y2   :     0.057413
      dxy     :     0.061841
  5 H s       :     0.873501  s :     0.873501
  6 C s       :     2.797934  s :     2.797934
      pz      :     0.959047  p :     3.157935
      px      :     1.045757
      py      :     1.153131
      dz2     :     0.010886  d :     0.171071
      dxz     :     0.007746
      dyz     :     0.033221
      dx2y2   :     0.069473
      dxy     :     0.049746
  7 H s       :     0.873158  s :     0.873158
  8 C s       :     2.797952  s :     2.797952
      pz      :     0.959209  p :     3.157612
      px      :     1.118900
      py      :     1.079503
      dz2     :     0.010866  d :     0.171141
      dxz     :     0.025149
      dyz     :     0.015838
      dx2y2   :     0.052108
      dxy     :     0.067180
  9 H s       :     0.873250  s :     0.873250
 10 C s       :     2.797957  s :     2.797957
      pz      :     0.958834  p :     3.157387
      px      :     1.133887
      py      :     1.064666
      dz2     :     0.010889  d :     0.171100
      dxz     :     0.028533
      dyz     :     0.012423
      dx2y2   :     0.057413
      dxy     :     0.061841
 11 H s       :     0.873501  s :     0.873501


                      *****************************
                      * MAYER POPULATION ANALYSIS *
                      *****************************

  NA   - Mulliken gross atomic population
  ZA   - Total nuclear charge
  QA   - Mulliken gross atomic charge
  VA   - Mayer's total valence
  BVA  - Mayer's bonded valence
  FA   - Mayer's free valence

  ATOM       NA         ZA         QA         VA         BVA        FA
  0 C      6.1410     6.0000    -0.1410     4.1162     4.1162     0.0000
  1 H      0.8607     1.0000     0.1393     0.9282     0.9282     0.0000
  2 C      6.1362     6.0000    -0.1362     4.1153     4.1153     0.0000
  3 H      0.8623     1.0000     0.1377     0.9286     0.9286     0.0000
  4 C      6.1361     6.0000    -0.1361     4.1187     4.1187    -0.0000
  5 H      0.8637     1.0000     0.1363     0.9292     0.9292    -0.0000
  6 C      6.1410     6.0000    -0.1410     4.1162     4.1162     0.0000
  7 H      0.8607     1.0000     0.1393     0.9282     0.9282     0.0000
  8 C      6.1362     6.0000    -0.1362     4.1153     4.1153     0.0000
  9 H      0.8623     1.0000     0.1377     0.9286     0.9286     0.0000
 10 C      6.1361     6.0000    -0.1361     4.1187     4.1187    -0.0000
 11 H      0.8637     1.0000     0.1363     0.9292     0.9292    -0.0000

  Mayer bond orders larger than 0.1
B(  0-C ,  1-H ) :   0.9066 B(  0-C ,  2-C ) :   1.5310 B(  0-C , 10-C ) :   1.5336 
B(  2-C ,  3-H ) :   0.9072 B(  2-C ,  4-C ) :   1.5322 B(  4-C ,  5-H ) :   0.9074 
B(  4-C ,  6-C ) :   1.5336 B(  6-C ,  7-H ) :   0.9066 B(  6-C ,  8-C ) :   1.5310 
B(  8-C ,  9-H ) :   0.9072 B(  8-C , 10-C ) :   1.5322 B( 10-C , 11-H ) :   0.9074 


-------
TIMINGS
-------

Total SCF time: 0 days 0 hours 0 min 53 sec 

Total time                  ....      53.603 sec
Sum of individual times     ....      53.432 sec  ( 99.7%)

Fock matrix formation       ....      51.813 sec  ( 96.7%)
  XC integration            ....       3.668 sec  (  7.1% of F)
    Basis function eval.    ....       1.903 sec  ( 51.9% of XC)
    Density eval.           ....       0.313 sec  (  8.5% of XC)
    XC-Functional eval.     ....       0.590 sec  ( 16.1% of XC)
    XC-Potential eval.      ....       0.540 sec  ( 14.7% of XC)
Diagonalization             ....       0.012 sec  (  0.0%)
Density matrix formation    ....       0.001 sec  (  0.0%)
Population analysis         ....       0.014 sec  (  0.0%)
Initial guess               ....       0.413 sec  (  0.8%)
Orbital Transformation      ....       0.000 sec  (  0.0%)
Orbital Orthonormalization  ....       0.000 sec  (  0.0%)
DIIS solution               ....       0.000 sec  (  0.0%)
Grid generation             ....       1.179 sec  (  2.2%)


-------------------------------------------------------------------------------
                          DFT DISPERSION CORRECTION                            
                                                                               
                              DFTD3 V3.1  Rev 1                                
                              USING zero damping                               
-------------------------------------------------------------------------------
The omegaB97X-D3 functional is recognized. Fit by Chai et al.
Active option DFTDOPT                   ...         3   

molecular C6(AA) [au] = 1306.618554 


            DFT-D V3
 parameters
 s6 scaling factor         :     1.0000 
 rs6 scaling factor        :     1.2810 
 s8 scaling factor         :     1.0000 
 rs8 scaling factor        :     1.0940 
 Damping factor alpha6     :    14.0000 
 Damping factor alpha8     :    16.0000 
 ad hoc parameters k1-k3   :    16.0000     1.3333    -4.0000 

 Edisp/kcal,au: -1.185304155007  -0.001888902204 
 E6   /kcal   :  -0.392649521 
 E8   /kcal   :  -0.792654634 
 % E8         :  66.873521908 

-------------------------   ----------------
Dispersion correction           -0.001888902
-------------------------   ----------------


-------------------------   --------------------
FINAL SINGLE POINT ENERGY      -231.722486967018
-------------------------   --------------------


                            ***************************************
                            *     ORCA property calculations      *
                            ***************************************

                                    ---------------------
                                    Active property flags
                                    ---------------------
   (+) Dipole Moment


------------------------------------------------------------------------------
                       ORCA ELECTRIC PROPERTIES CALCULATION
------------------------------------------------------------------------------

Dipole Moment Calculation                       ... on
Quadrupole Moment Calculation                   ... off
Polarizability Calculation                      ... off
GBWName                                         ... Scan_3.gbw
Electron density file                           ... Scan_3.scfp.tmp

-------------
DIPOLE MOMENT
-------------
                                X             Y             Z
Electronic contribution:      0.00000       0.00000      -0.00000
Nuclear contribution   :     -0.00000      -0.00000       0.00000
                        -----------------------------------------
Total Dipole Moment    :      0.00000       0.00000      -0.00000
                        -----------------------------------------
Magnitude (a.u.)       :      0.00000
Magnitude (Debye)      :      0.00000


Timings for individual modules:

Sum of individual times         ...       54.212 sec (=   0.904 min)
GTO integral calculation        ...        0.571 sec (=   0.010 min)   1.1 %
SCF iterations                  ...       53.641 sec (=   0.894 min)  98.9 %
                             ****ORCA TERMINATED NORMALLY****
TOTAL RUN TIME: 0 days 0 hours 0 minutes 54 seconds 534 msec
