
                                 *****************
                                 * O   R   C   A *
                                 *****************

           --- An Ab Initio, DFT and Semiempirical electronic structure package ---

                  #######################################################
                  #                        -***-                        #
                  #  Department of molecular theory and spectroscopy    #
                  #              Directorship: Frank Neese              #
                  # Max Planck Institute for Chemical Energy Conversion #
                  #                  D-45470 Muelheim/Ruhr              #
                  #                       Germany                       #
                  #                                                     #
                  #                  All rights reserved                #
                  #                        -***-                        #
                  #######################################################


                         Program Version 4.0.0.2 - RELEASE -


 With contributions from (in alphabetic order):
   Daniel Aravena         : Magnetic Properties
   Michael Atanasov       : Ab Initio Ligand Field Theory
   Ute Becker             : Parallelization
   Martin Brehm           : Molecular dynamics
   Dmytro Bykov           : SCF Hessian
   Vijay G. Chilkuri      : MRCI spin determinant printing
   Dipayan Datta          : RHF DLPNO-CCSD density
   Achintya Kumar Dutta   : EOM-CC, STEOM-CC
   Dmitry Ganyushin       : Spin-Orbit,Spin-Spin,Magnetic field MRCI
   Yang Guo               : DLPNO-NEVPT2, CIM, IAO-localization
   Andreas Hansen         : Spin unrestricted coupled pair/coupled cluster methods
   Lee Huntington         : MR-EOM, pCC
   Robert Izsak           : Overlap fitted RIJCOSX, COSX-SCS-MP3, EOM
   Christian Kollmar      : KDIIS, OOCD, Brueckner-CCSD(T), CCSD density
   Simone Kossmann        : Meta GGA functionals, TD-DFT gradient, OOMP2, MP2 Hessian
   Martin Krupicka        : AUTO-CI
   Dagmar Lenk            : GEPOL surface
   Dimitrios Liakos       : Extrapolation schemes; parallel MDCI
   Dimitrios Manganas     : ROCIS; embedding schemes
   Dimitrios Pantazis     : SARC Basis sets
   Taras Petrenko         : DFT Hessian,TD-DFT gradient, ASA, ECA, R-Raman, ABS, FL, XAS/XES, NRVS
   Peter Pinski           : DLPNO-MP2
   Christoph Reimann      : Effective Core Potentials
   Marius Retegan         : Local ZFS, SOC
   Christoph Riplinger    : Optimizer, TS searches, QM/MM, DLPNO-CCSD(T), (RO)-DLPNO pert. Triples
   Tobias Risthaus        : Range-separated hybrids, TD-DFT gradient, RPA, STAB
   Michael Roemelt        : Restricted open shell CIS
   Masaaki Saitow         : Open-shell DLPNO
   Barbara Sandhoefer     : DKH picture change effects
   Kantharuban Sivalingam : CASSCF convergence, NEVPT2, FIC-MRCI
   Georgi Stoychev        : AutoAux
   Boris Wezisla          : Elementary symmetry handling
   Frank Wennmohs         : Technical directorship


 We gratefully acknowledge several colleagues who have allowed us to
 interface, adapt or use parts of their codes:
   Stefan Grimme, W. Hujo, H. Kruse,             : VdW corrections, initial TS optimization,
                  C. Bannwarth                     DFT functionals, gCP, sTDA/sTD-DF
   Ed Valeev                                     : LibInt (2-el integral package), F12 methods
   Garnet Chan, S. Sharma, J. Yang, R. Olivares  : DMRG
   Ulf Ekstrom                                   : XCFun DFT Library
   Mihaly Kallay                                 : mrcc  (arbitrary order and MRCC methods)
   Jiri Pittner, Ondrej Demel                    : Mk-CCSD
   Frank Weinhold                                : gennbo (NPA and NBO analysis)
   Christopher J. Cramer and Donald G. Truhlar   : smd solvation model


 Your calculation uses the libint2 library for the computation of 2-el integrals
 For citations please refer to: http://libint.valeyev.net

 This ORCA versions uses:
   CBLAS   interface :  Fast vector & matrix operations
   LAPACKE interface :  Fast linear algebra routines
   SCALAPACK package :  Parallel linear algebra routines


Your calculation utilizes the atom-pairwise dispersion correction
with the zero-damping scheme (D30)
Cite in your paper:
S.Grimme, J.Antony, S.Ehrlich and H.Krieg, J.Chem.Phys., 132, (2010), 154104 
   

XCFun DFT library Copyright 2009-2010 Ulf Ekstrom and contributors.
See http://admol.org/xcfun for more information. This is free soft-
ware; see the source code for copying conditions. There is ABSOLUTELY
NO WARRANTY; not even for MERCHANTABILITY or FITNESS FOR A PARTICULAR
PURPOSE. For details see the documentation. Scientific users of this 
library should cite U. Ekstrom, L. Visscher, R. Bast, A. J. Thorvald-
sen and K. Ruud; J.Chem.Theor.Comp. 2010, DOI: 10.1021/ct100117s
XCFun Version 0.99 
Your calculation utilizes the basis: 6-31G(d)
   H-He, Li-Ne : W. J. Hehre, R. Ditchfield and J.A. Pople, J. Chem. Phys. 56, 2257 (1972).
                 Note: He and Ne are unpublished basis sets taken from the Gaussian program.
                 Note: Li and B from J. D. Dill and J. A. Pople, J. Chem. Phys. 62, 2921 (1975).
   Na - Ar     : M. M. Francl, W. J. Pietro, W. J. Hehre, J. S. Binkley, M. S. Gordon, 
                 D. J. DeFrees and J. A. Pople, J. Chem. Phys. 77, 3654 (1982).
   K - Zn      : V. A. Rassolov, J. A. Pople, M. A. Ratner, and T. L. Windus, J. Chem. Phys. 109, 1223 (1998).

================================================================================
                                        WARNINGS
                       Please study these warnings very carefully!
================================================================================

Warning: TCutStore was < 0. Adjusted to Thresh (uncritical)

INFO   : the flag for use of LIBINT has been found!

================================================================================
                                       INPUT FILE
================================================================================
NAME = initial30.inp
|  1> ! WB97X-D3 6-31G(d) VerySlowConv
|  2> ! KDIIS NOSOSCF
|  3> %base "Scan_30"
|  4> 
|  5> %scf
|  6> maxiter 999
|  7> end
|  8> 
|  9> * xyz 0 1
| 10> C          3.578303903287   -3.007394533366    0.113975496323
| 11> H          3.573907838734   -3.006375888760   -0.997591859044
| 12> C          2.083993290967    0.109721904242   -0.110870173187
| 13> H          2.075274604593    0.110498210037    1.000675345075
| 14> C         -1.363100110839    0.375096362575    0.106088176488
| 15> H         -1.367147978766    0.368134340385   -1.005464925482
| 16> C         -3.314160172725   -2.479441565676   -0.105882325735
| 17> H         -3.311748149067   -2.478737240685    1.005697440379
| 18> C         -1.819642373598   -5.597267882104    0.107480492164
| 19> H         -1.823590790830   -5.589769733681   -1.004067019674
| 20> C          1.627484035561   -5.861113506802   -0.110793137344
| 21> H          1.619035902684   -5.859460466170    1.000752490037
| 22> **                         ****END OF INPUT****
================================================================================

                       ****************************
                       * Single Point Calculation *
                       ****************************

---------------------------------
CARTESIAN COORDINATES (ANGSTROEM)
---------------------------------
  C      3.578304   -3.007395    0.113975
  H      3.573908   -3.006376   -0.997592
  C      2.083993    0.109722   -0.110870
  H      2.075275    0.110498    1.000675
  C     -1.363100    0.375096    0.106088
  H     -1.367148    0.368134   -1.005465
  C     -3.314160   -2.479442   -0.105882
  H     -3.311748   -2.478737    1.005697
  C     -1.819642   -5.597268    0.107480
  H     -1.823591   -5.589770   -1.004067
  C      1.627484   -5.861114   -0.110793
  H      1.619036   -5.859460    1.000752

----------------------------
CARTESIAN COORDINATES (A.U.)
----------------------------
  NO LB      ZA    FRAG     MASS         X           Y           Z
   0 C     6.0000    0    12.011    6.762014   -5.683152    0.215382
   1 H     1.0000    0     1.008    6.753707   -5.681227   -1.885175
   2 C     6.0000    0    12.011    3.938177    0.207344   -0.209514
   3 H     1.0000    0     1.008    3.921701    0.208811    1.891002
   4 C     6.0000    0    12.011   -2.575886    0.708829    0.200478
   5 H     1.0000    0     1.008   -2.583535    0.695673   -1.900053
   6 C     6.0000    0    12.011   -6.262855   -4.685466   -0.200089
   7 H     1.0000    0     1.008   -6.258297   -4.684135    1.900493
   8 C     6.0000    0    12.011   -3.438626  -10.577303    0.203109
   9 H     1.0000    0     1.008   -3.446087  -10.563134   -1.897412
  10 C     6.0000    0    12.011    3.075499  -11.075899   -0.209369
  11 H     1.0000    0     1.008    3.059534  -11.072776    1.891148

--------------------------------
INTERNAL COORDINATES (ANGSTROEM)
--------------------------------
 C      0   0   0     0.000000000000     0.00000000     0.00000000
 H      1   0   0     1.111576514927     0.00000000     0.00000000
 C      1   2   0     3.464092185089    86.13317592     0.00000000
 H      3   1   2     1.111579982417    86.50889254   179.42928695
 C      3   1   2     3.464094030104   119.61194931    96.08486600
 H      5   3   1     1.111582274727    86.58974093   264.03195905
 C      5   3   1     3.464094924035   119.57088963   347.56693249
 H      7   5   3     1.111582606182    86.39171450    96.05609477
 C      7   5   3     3.464094121611   119.66347062    12.21924191
 H      9   7   5     1.111579814184    86.03227241   263.91600509
 C      1   2   3     3.464091666562    86.19522793   120.05700951
 H     11   1   2     1.111578960417    86.45523305   180.62552724

---------------------------
INTERNAL COORDINATES (A.U.)
---------------------------
 C      0   0   0     0.000000000000     0.00000000     0.00000000
 H      1   0   0     2.100575190111     0.00000000     0.00000000
 C      1   2   0     6.546185532475    86.13317592     0.00000000
 H      3   1   2     2.100581742718    86.50889254   179.42928695
 C      3   1   2     6.546189019049   119.61194931    96.08486600
 H      5   3   1     2.100586074555    86.58974093   264.03195905
 C      5   3   1     6.546190708332   119.57088963   347.56693249
 H      7   5   3     2.100586700914    86.39171450    96.05609477
 C      7   5   3     6.546189191971   119.66347062    12.21924191
 H      9   7   5     2.100581424803    86.03227241   263.91600509
 C      1   2   3     6.546184552601    86.19522793   120.05700951
 H     11   1   2     2.100579811417    86.45523305   180.62552724

---------------------
BASIS SET INFORMATION
---------------------
There are 2 groups of distinct atoms

 Group   1 Type C   : 10s4p1d contracted to 3s2p1d pattern {631/31/1}
 Group   2 Type H   : 4s contracted to 2s pattern {31}

Atom   0C    basis set group =>   1
Atom   1H    basis set group =>   2
Atom   2C    basis set group =>   1
Atom   3H    basis set group =>   2
Atom   4C    basis set group =>   1
Atom   5H    basis set group =>   2
Atom   6C    basis set group =>   1
Atom   7H    basis set group =>   2
Atom   8C    basis set group =>   1
Atom   9H    basis set group =>   2
Atom  10C    basis set group =>   1
Atom  11H    basis set group =>   2
------------------------------------------------------------------------------
                           ORCA GTO INTEGRAL CALCULATION
------------------------------------------------------------------------------

                         BASIS SET STATISTICS AND STARTUP INFO

 # of primitive gaussian shells          ...  114
 # of primitive gaussian functions       ...  186
 # of contracted shells                  ...   48
 # of contracted basis functions         ...   96
 Highest angular momentum                ...    2
 Maximum contraction depth               ...    6
 Integral package used                   ... LIBINT
 Integral threshhold            Thresh   ...  1.000e-10
 Primitive cut-off              TCut     ...  1.000e-11


------------------------------ INTEGRAL EVALUATION ----------------------------


 * One electron integrals 
 Pre-screening matrix                    ... done
 Shell pair data                         ... done (   0.001 sec)

-------------------------------------------------------------------------------
                                 ORCA SCF
-------------------------------------------------------------------------------

------------
SCF SETTINGS
------------
Hamiltonian:
 Density Functional     Method          .... DFT(GTOs)
 Exchange Functional    Exchange        .... WB97X-D3
 Correlation Functional Correlation     .... WB97X-D3
 Gradients option       PostSCFGGA      .... off
 Hybrid DFT is turned on
   Fraction HF Exchange ScalHFX         ....  0.195728
   Scaling of DF-GGA-X  ScalDFX         ....  0.000000
   Scaling of DF-GGA-C  ScalDFC         ....  1.000000
   Scaling of DF-LDA-C  ScalLDAC        ....  1.000000
   Perturbative correction              ....  0.000000
 Long-range corrected/Screened/Range-Separated Hybrid DFT is turned on
   Amount of maximum screened exact exchange              ....  0.804272
   Range separation parameter mu (erf(mu*r12)/r12)        ....  0.250000


General Settings:
 Integral files         IntName         .... Scan_30
 Hartree-Fock type      HFTyp           .... RHF
 Total Charge           Charge          ....    0
 Multiplicity           Mult            ....    1
 Number of Electrons    NEL             ....   42
 Basis Dimension        Dim             ....   96
 Nuclear Repulsion      ENuc            ....     98.7009357980 Eh

Convergence Acceleration:
 DIIS                   CNVDIIS         .... on
   Start iteration      DIISMaxIt       ....     0
   Startup error        DIISStart       ....  0.200000
   # of expansion vecs  DIISMaxEq       ....     5
   Bias factor          DIISBfac        ....   1.050
   Max. coefficient     DIISMaxC        ....  10.000
 Newton-Raphson         CNVNR           .... off
 SOSCF                  CNVSOSCF        .... off
 Level Shifting         CNVShift        .... off
 Zerner damping         CNVZerner       .... off
 Static damping         CNVDamp         .... off
 Fernandez-Rico         CNVRico         .... off

SCF Procedure:
 Maximum # iterations   MaxIter         ....   999
 SCF integral mode      SCFMode         .... Direct
   Integral package                     .... LIBINT
 Reset frequeny         DirectResetFreq ....    20
 Integral Threshold     Thresh          ....  1.000e-10 Eh
 Primitive CutOff       TCut            ....  1.000e-11 Eh

Convergence Tolerance:
 Convergence Check Mode ConvCheckMode   .... All-Criteria
 Convergence forced     ConvForced      .... 0
 Energy Change          TolE            ....  1.000e-06 Eh
 Max Density Change     TolMaxP         ....  1.000e-05
 RMS Density Change     TolRMSP         ....  1.000e-06
 DIIS Error             TolErr          ....  1.000e-06


Diagonalization of the overlap matrix:
Smallest eigenvalue                        ... 4.414e-02
Time for diagonalization                   ...    0.002 sec
Threshold for overlap eigenvalues          ... 1.000e-08
Number of eigenvalues below threshold      ... 0
Time for construction of square roots      ...    0.006 sec
Total time needed                          ...    0.008 sec

-------------------
DFT GRID GENERATION
-------------------

General Integration Accuracy     IntAcc      ...  4.340
Radial Grid Type                 RadialGrid  ... Gauss-Chebyshev
Angular Grid (max. acc.)         AngularGrid ... Lebedev-110
Angular grid pruning method      GridPruning ... 3 (G Style)
Weight generation scheme         WeightScheme... Becke
Basis function cutoff            BFCut       ...    1.0000e-10
Integration weight cutoff        WCut        ...    1.0000e-14
Grids for H and He will be reduced by one unit

# of grid points (after initial pruning)     ...  14700 (   0.0 sec)
# of grid points (after weights+screening)   ...  14200 (   0.0 sec)
nearest neighbour list constructed           ...    0.0 sec
Grid point re-assignment to atoms done       ...    0.0 sec
Grid point division into batches done        ...    0.0 sec
Reduced shell lists constructed in    0.2 sec

Total number of grid points                  ...    14200
Total number of batches                      ...      228
Average number of points per batch           ...       62
Average number of grid points per atom       ...     1183
Average number of shells per batch           ...    23.90 (49.80%)
Average number of basis functions per batch  ...    46.43 (48.36%)
Average number of large shells per batch     ...    15.38 (64.36%)
Average number of large basis fcns per batch ...    30.10 (64.83%)
Maximum spatial batch extension              ...  21.81, 25.60, 20.05 au
Average spatial batch extension              ...   5.03,  5.05,  4.43 au

Time for grid setup =    0.448 sec

------------------------------
INITIAL GUESS: MODEL POTENTIAL
------------------------------
Loading Hartree-Fock densities                     ... done
Calculating cut-offs                               ... done
Setting up the integral package                    ... done
Initializing the effective Hamiltonian             ... done
Starting the Coulomb interaction                   ... done (   0.1 sec)
Reading the grid                                   ... done
Mapping shells                                     ... done
Starting the XC term evaluation                    ... done (   0.1 sec)
  promolecular density results
     # of electrons  =     41.996295987
     EX              =    -31.546019068
     EC              =     -1.143215636
     EX+EC           =    -32.689234704
Transforming the Hamiltonian                       ... done (   0.0 sec)
Diagonalizing the Hamiltonian                      ... done (   0.0 sec)
Back transforming the eigenvectors                 ... done (   0.0 sec)
Now organizing SCF variables                       ... done
                      ------------------
                      INITIAL GUESS DONE (   0.7 sec)
                      ------------------
--------------
SCF ITERATIONS
--------------
ITER       Energy         Delta-E        Max-DP      RMS-DP      [F,P]   Gradient Norm
               ***  Starting incremental Fock matrix formation  ***
                             ****Resetting KDIIS****
                             ****Turning on KDIIS(Cayley)****
  0   -230.5223878866   0.000000000000 0.00478056  0.00030913  0.0295817   0.026037406
  1   -230.5270137492  -0.004625862641 0.00878231  0.00072994  0.0265847   0.023590010
  2   -230.5366872245  -0.009673475234 0.02101717  0.00166551  0.0220388   0.019141307
  3   -230.5524212747  -0.015734050273 0.03535689  0.00323635  0.0133468   0.011600406
  4   -230.5627470553  -0.010325780606 0.00408505  0.00038707  0.0022929   0.001472025
  5   -230.5629735640  -0.000226508632 0.00042314  0.00003473  0.0002619   0.000173034
  6   -230.5629767967  -0.000003232744 0.00037365  0.00001735  0.0001423   0.000090443
                          ***Energy convergence achieved***
  7   -230.5629776002  -0.000000803512 0.00025937  0.00001199  0.0000983   0.000072589
  8   -230.5629780474  -0.000000447192 0.00014458  0.00000792  0.0000785   0.000039101

            ***Energy convergence in two consecutive cycles with***
                    ***'reasonable' density convergence***
                       *** signaling convergence ***

                    *** KDIIS BlockDiag ( 0.001 sec) ***

               *****************************************************
               *                     SUCCESS                       *
               *           SCF CONVERGED AFTER   9 CYCLES          *
               *****************************************************

Setting up the final grid:

General Integration Accuracy     IntAcc      ...  4.670
Radial Grid Type                 RadialGrid  ... Gauss-Chebyshev
Angular Grid (max. acc.)         AngularGrid ... Lebedev-302
Angular grid pruning method      GridPruning ... 3 (G Style)
Weight generation scheme         WeightScheme... Becke
Basis function cutoff            BFCut       ...    1.0000e-10
Integration weight cutoff        WCut        ...    1.0000e-14
Grids for H and He will be reduced by one unit

# of grid points (after initial pruning)     ...  57636 (   0.0 sec)
# of grid points (after weights+screening)   ...  55734 (   0.1 sec)
nearest neighbour list constructed           ...    0.0 sec
Grid point re-assignment to atoms done       ...    0.0 sec
Grid point division into batches done        ...    0.2 sec
Reduced shell lists constructed in    0.7 sec

Total number of grid points                  ...    55734
Total number of batches                      ...      878
Average number of points per batch           ...       63
Average number of grid points per atom       ...     4644
Average number of shells per batch           ...    20.77 (43.27%)
Average number of basis functions per batch  ...    40.01 (41.68%)
Average number of large shells per batch     ...    13.12 (63.18%)
Average number of large basis fcns per batch ...    25.33 (63.31%)
Maximum spatial batch extension              ...  18.95, 22.37, 22.15 au
Average spatial batch extension              ...   3.15,  3.26,  2.95 au

Final grid set up in    0.8 sec
Final integration                            ... done (   0.5 sec)
Change in XC energy                          ...     0.000749718
Integrated number of electrons               ...    42.000004656
Previous integrated no of electrons          ...    42.002852429

----------------
TOTAL SCF ENERGY
----------------

Total Energy       :         -230.56222854 Eh           -6273.91720 eV

Components:
Nuclear Repulsion  :           98.70093580 Eh            2685.78901 eV
Electronic Energy  :         -329.26316434 Eh           -8959.70620 eV
One Electron Energy:         -502.90155386 Eh          -13684.64699 eV
Two Electron Energy:          173.63838952 Eh            4724.94079 eV

Virial components:
Potential Energy   :         -459.57816887 Eh          -12505.75776 eV
Kinetic Energy     :          229.01594033 Eh            6231.84056 eV
Virial Ratio       :            2.00675188


DFT components:
N(Alpha)           :       21.000002328223 electrons
N(Beta)            :       21.000002328223 electrons
N(Total)           :       42.000004656447 electrons
E(XC)              :      -22.730399989919 Eh       

---------------
SCF CONVERGENCE
---------------

  Last Energy change         ...   -2.0913e-07  Tolerance :   1.0000e-06
  Last MAX-Density change    ...    9.8254e-05  Tolerance :   1.0000e-05
  Last RMS-Density change    ...    6.3247e-06  Tolerance :   1.0000e-06
  Last DIIS Error            ...    6.6202e-05  Tolerance :   1.0000e-06

             **** THE GBW FILE WAS UPDATED (Scan_30.gbw) ****
             **** DENSITY FILE WAS UPDATED (Scan_30.scfp.tmp) ****
             **** ENERGY FILE WAS UPDATED (Scan_30.en.tmp) ****
----------------
ORBITAL ENERGIES
----------------

  NO   OCC          E(Eh)            E(eV) 
   0   2.0000     -10.409501      -283.2569 
   1   2.0000     -10.409482      -283.2564 
   2   2.0000     -10.409455      -283.2557 
   3   2.0000     -10.409420      -283.2547 
   4   2.0000     -10.409100      -283.2460 
   5   2.0000     -10.408964      -283.2423 
   6   2.0000      -0.750904       -20.4331 
   7   2.0000      -0.747794       -20.3485 
   8   2.0000      -0.747662       -20.3449 
   9   2.0000      -0.740588       -20.1524 
  10   2.0000      -0.740468       -20.1491 
  11   2.0000      -0.736669       -20.0458 
  12   2.0000      -0.411198       -11.1893 
  13   2.0000      -0.410982       -11.1834 
  14   2.0000      -0.410844       -11.1796 
  15   2.0000      -0.408940       -11.1278 
  16   2.0000      -0.408830       -11.1248 
  17   2.0000      -0.407464       -11.0877 
  18   2.0000      -0.284719        -7.7476 
  19   2.0000      -0.246368        -6.7040 
  20   2.0000      -0.246159        -6.6983 
  21   0.0000      -0.093053        -2.5321 
  22   0.0000      -0.092353        -2.5131 
  23   0.0000      -0.054392        -1.4801 
  24   0.0000      -0.044144        -1.2012 
  25   0.0000      -0.039524        -1.0755 
  26   0.0000      -0.039281        -1.0689 
  27   0.0000      -0.027576        -0.7504 
  28   0.0000      -0.027173        -0.7394 
  29   0.0000      -0.021714        -0.5909 
  30   0.0000       0.212364         5.7787 
  31   0.0000       0.218972         5.9585 
  32   0.0000       0.219068         5.9612 
  33   0.0000       0.232290         6.3209 
  34   0.0000       0.232317         6.3217 
  35   0.0000       0.238901         6.5008 
  36   0.0000       0.558571        15.1995 
  37   0.0000       0.566915        15.4265 
  38   0.0000       0.568616        15.4728 
  39   0.0000       0.568814        15.4782 
  40   0.0000       0.578956        15.7542 
  41   0.0000       0.579201        15.7609 
  42   0.0000       0.617961        16.8156 
  43   0.0000       0.636316        17.3150 
  44   0.0000       0.636569        17.3219 
  45   0.0000       0.663310        18.0496 
  46   0.0000       0.663348        18.0506 
  47   0.0000       0.677954        18.4481 
  48   0.0000       0.678055        18.4508 
  49   0.0000       0.678146        18.4533 
  50   0.0000       0.678360        18.4591 
  51   0.0000       0.689596        18.7648 
  52   0.0000       0.693984        18.8843 
  53   0.0000       0.700498        19.0615 
  54   0.0000       0.837973        22.8024 
  55   0.0000       0.858062        23.3491 
  56   0.0000       0.858243        23.3540 
  57   0.0000       0.892049        24.2739 
  58   0.0000       0.892111        24.2756 
  59   0.0000       0.916250        24.9324 
  60   0.0000       0.965572        26.2745 
  61   0.0000       0.970107        26.3979 
  62   0.0000       0.970176        26.3998 
  63   0.0000       0.995188        27.0804 
  64   0.0000       0.995273        27.0828 
  65   0.0000       1.018253        27.7081 
  66   0.0000       1.746194        47.5163 
  67   0.0000       1.746223        47.5171 
  68   0.0000       1.746335        47.5202 
  69   0.0000       1.746359        47.5208 
  70   0.0000       1.746749        47.5315 
  71   0.0000       1.746818        47.5333 
  72   0.0000       1.759965        47.8911 
  73   0.0000       1.760414        47.9033 
  74   0.0000       1.760522        47.9062 
  75   0.0000       1.761212        47.9250 
  76   0.0000       1.761324        47.9281 
  77   0.0000       1.761461        47.9318 
  78   0.0000       1.773671        48.2640 
  79   0.0000       1.774335        48.2821 
  80   0.0000       1.775278        48.3078 
  81   0.0000       1.775589        48.3162 
  82   0.0000       1.775643        48.3177 
  83   0.0000       1.775720        48.3198 
  84   0.0000       1.778233        48.3882 
  85   0.0000       1.778274        48.3893 
  86   0.0000       1.778695        48.4008 
  87   0.0000       1.778747        48.4022 
  88   0.0000       1.779395        48.4198 
  89   0.0000       1.779766        48.4299 
  90   0.0000       2.199581        59.8536 
  91   0.0000       2.201327        59.9012 
  92   0.0000       2.201472        59.9051 
  93   0.0000       2.207080        60.0577 
  94   0.0000       2.207204        60.0611 
  95   0.0000       2.210598        60.1534 

                    ********************************
                    * MULLIKEN POPULATION ANALYSIS *
                    ********************************

-----------------------
MULLIKEN ATOMIC CHARGES
-----------------------
   0 C :   -0.171399
   1 H :    0.171273
   2 C :   -0.171134
   3 H :    0.171339
   4 C :   -0.170988
   5 H :    0.171308
   6 C :   -0.172188
   7 H :    0.171129
   8 C :   -0.171236
   9 H :    0.171316
  10 C :   -0.170769
  11 H :    0.171348
Sum of atomic charges:   -0.0000000

--------------------------------
MULLIKEN REDUCED ORBITAL CHARGES
--------------------------------
  0 C s       :     3.919675  s :     3.919675
      pz      :     1.234735  p :     2.236972
      px      :     0.019343
      py      :     0.982894
      dz2     :     0.014098  d :     0.014752
      dxz     :     0.000011
      dyz     :     0.000531
      dx2y2   :     0.000054
      dxy     :     0.000057
  1 H s       :     0.828727  s :     0.828727
  2 C s       :     3.919465  s :     3.919465
      pz      :     1.235031  p :     2.236928
      px      :     0.683883
      py      :     0.318015
      dz2     :     0.014090  d :     0.014741
      dxz     :     0.000368
      dyz     :     0.000170
      dx2y2   :     0.000059
      dxy     :     0.000054
  3 H s       :     0.828661  s :     0.828661
  4 C s       :     3.919426  s :     3.919426
      pz      :     1.235032  p :     2.236815
      px      :     0.811830
      py      :     0.189953
      dz2     :     0.014095  d :     0.014746
      dxz     :     0.000437
      dyz     :     0.000101
      dx2y2   :     0.000056
      dxy     :     0.000057
  5 H s       :     0.828692  s :     0.828692
  6 C s       :     3.919574  s :     3.919574
      pz      :     1.234593  p :     2.237867
      px      :     0.019327
      py      :     0.983947
      dz2     :     0.014095  d :     0.014747
      dxz     :     0.000011
      dyz     :     0.000530
      dx2y2   :     0.000054
      dxy     :     0.000057
  7 H s       :     0.828871  s :     0.828871
  8 C s       :     3.919429  s :     3.919429
      pz      :     1.235022  p :     2.237068
      px      :     0.684304
      py      :     0.317743
      dz2     :     0.014089  d :     0.014739
      dxz     :     0.000368
      dyz     :     0.000169
      dx2y2   :     0.000057
      dxy     :     0.000056
  9 H s       :     0.828684  s :     0.828684
 10 C s       :     3.919472  s :     3.919472
      pz      :     1.235063  p :     2.236548
      px      :     0.811439
      py      :     0.190046
      dz2     :     0.014095  d :     0.014749
      dxz     :     0.000438
      dyz     :     0.000102
      dx2y2   :     0.000059
      dxy     :     0.000055
 11 H s       :     0.828652  s :     0.828652


                     *******************************
                     * LOEWDIN POPULATION ANALYSIS *
                     *******************************

----------------------
LOEWDIN ATOMIC CHARGES
----------------------
   0 C :   -0.118418
   1 H :    0.118292
   2 C :   -0.118253
   3 H :    0.118446
   4 C :   -0.118098
   5 H :    0.118414
   6 C :   -0.119229
   7 H :    0.118213
   8 C :   -0.118352
   9 H :    0.118433
  10 C :   -0.117884
  11 H :    0.118437

-------------------------------
LOEWDIN REDUCED ORBITAL CHARGES
-------------------------------
  0 C s       :     3.752559  s :     3.752559
      pz      :     1.342162  p :     2.345941
      px      :     0.020021
      py      :     0.983758
      dz2     :     0.019259  d :     0.019918
      dxz     :     0.000012
      dyz     :     0.000528
      dx2y2   :     0.000056
      dxy     :     0.000062
  1 H s       :     0.881708  s :     0.881708
  2 C s       :     3.752532  s :     3.752532
      pz      :     1.342358  p :     2.345817
      px      :     0.684698
      py      :     0.318761
      dz2     :     0.019248  d :     0.019904
      dxz     :     0.000366
      dyz     :     0.000169
      dx2y2   :     0.000064
      dxy     :     0.000057
  3 H s       :     0.881554  s :     0.881554
  4 C s       :     3.752511  s :     3.752511
      pz      :     1.342338  p :     2.345678
      px      :     0.812655
      py      :     0.190686
      dz2     :     0.019252  d :     0.019908
      dxz     :     0.000435
      dyz     :     0.000101
      dx2y2   :     0.000060
      dxy     :     0.000060
  5 H s       :     0.881586  s :     0.881586
  6 C s       :     3.752473  s :     3.752473
      pz      :     1.342055  p :     2.346841
      px      :     0.020001
      py      :     0.984785
      dz2     :     0.019259  d :     0.019914
      dxz     :     0.000011
      dyz     :     0.000527
      dx2y2   :     0.000056
      dxy     :     0.000062
  7 H s       :     0.881787  s :     0.881787
  8 C s       :     3.752504  s :     3.752504
      pz      :     1.342348  p :     2.345945
      px      :     0.685097
      py      :     0.318501
      dz2     :     0.019248  d :     0.019903
      dxz     :     0.000366
      dyz     :     0.000168
      dx2y2   :     0.000062
      dxy     :     0.000058
  9 H s       :     0.881567  s :     0.881567
 10 C s       :     3.752549  s :     3.752549
      pz      :     1.342367  p :     2.345425
      px      :     0.812288
      py      :     0.190770
      dz2     :     0.019252  d :     0.019910
      dxz     :     0.000436
      dyz     :     0.000101
      dx2y2   :     0.000063
      dxy     :     0.000058
 11 H s       :     0.881563  s :     0.881563


                      *****************************
                      * MAYER POPULATION ANALYSIS *
                      *****************************

  NA   - Mulliken gross atomic population
  ZA   - Total nuclear charge
  QA   - Mulliken gross atomic charge
  VA   - Mayer's total valence
  BVA  - Mayer's bonded valence
  FA   - Mayer's free valence

  ATOM       NA         ZA         QA         VA         BVA        FA
  0 C      6.1714     6.0000    -0.1714     1.9464     1.9464     0.0000
  1 H      0.8287     1.0000     0.1713     0.9055     0.9055     0.0000
  2 C      6.1711     6.0000    -0.1711     1.9478     1.9478    -0.0000
  3 H      0.8287     1.0000     0.1713     0.9056     0.9056    -0.0000
  4 C      6.1710     6.0000    -0.1710     1.9481     1.9481     0.0000
  5 H      0.8287     1.0000     0.1713     0.9056     0.9056    -0.0000
  6 C      6.1722     6.0000    -0.1722     1.9465     1.9465    -0.0000
  7 H      0.8289     1.0000     0.1711     0.9055     0.9055    -0.0000
  8 C      6.1712     6.0000    -0.1712     1.9480     1.9480    -0.0000
  9 H      0.8287     1.0000     0.1713     0.9056     0.9056     0.0000
 10 C      6.1708     6.0000    -0.1708     1.9479     1.9479    -0.0000
 11 H      0.8287     1.0000     0.1713     0.9056     0.9056     0.0000

  Mayer bond orders larger than 0.1
B(  0-C ,  1-H ) :   0.9038 B(  0-C ,  2-C ) :   0.4534 B(  0-C ,  6-C ) :   0.1012 
B(  0-C , 10-C ) :   0.4532 B(  2-C ,  3-H ) :   0.9039 B(  2-C ,  4-C ) :   0.4563 
B(  4-C ,  5-H ) :   0.9040 B(  4-C ,  6-C ) :   0.4534 B(  6-C ,  7-H ) :   0.9039 
B(  6-C ,  8-C ) :   0.4534 B(  8-C ,  9-H ) :   0.9040 B(  8-C , 10-C ) :   0.4564 
B( 10-C , 11-H ) :   0.9039 

-------
TIMINGS
-------

Total SCF time: 0 days 0 hours 0 min 13 sec 

Total time                  ....      13.330 sec
Sum of individual times     ....      13.179 sec  ( 98.9%)

Fock matrix formation       ....      11.660 sec  ( 87.5%)
  XC integration            ....       2.087 sec  ( 17.9% of F)
    Basis function eval.    ....       0.951 sec  ( 45.6% of XC)
    Density eval.           ....       0.124 sec  (  6.0% of XC)
    XC-Functional eval.     ....       0.598 sec  ( 28.6% of XC)
    XC-Potential eval.      ....       0.122 sec  (  5.9% of XC)
Diagonalization             ....       0.013 sec  (  0.1%)
Density matrix formation    ....       0.001 sec  (  0.0%)
Population analysis         ....       0.013 sec  (  0.1%)
Initial guess               ....       0.267 sec  (  2.0%)
Orbital Transformation      ....       0.000 sec  (  0.0%)
Orbital Orthonormalization  ....       0.000 sec  (  0.0%)
DIIS solution               ....       0.000 sec  (  0.0%)
Grid generation             ....       1.224 sec  (  9.2%)


-------------------------------------------------------------------------------
                          DFT DISPERSION CORRECTION                            
                                                                               
                              DFTD3 V3.1  Rev 1                                
                              USING zero damping                               
-------------------------------------------------------------------------------
The omegaB97X-D3 functional is recognized. Fit by Chai et al.
Active option DFTDOPT                   ...         3   

molecular C6(AA) [au] = 2491.299950 


            DFT-D V3
 parameters
 s6 scaling factor         :     1.0000 
 rs6 scaling factor        :     1.2810 
 s8 scaling factor         :     1.0000 
 rs8 scaling factor        :     1.0940 
 Damping factor alpha6     :    14.0000 
 Damping factor alpha8     :    16.0000 
 ad hoc parameters k1-k3   :    16.0000     1.3333    -4.0000 

 Edisp/kcal,au: -1.726932729683  -0.002752042187 
 E6   /kcal   :  -0.785013203 
 E8   /kcal   :  -0.941919527 
 % E8         :  54.542919414 

-------------------------   ----------------
Dispersion correction           -0.002752042
-------------------------   ----------------


-------------------------   --------------------
FINAL SINGLE POINT ENERGY      -230.564980581214
-------------------------   --------------------


                            ***************************************
                            *     ORCA property calculations      *
                            ***************************************

                                    ---------------------
                                    Active property flags
                                    ---------------------
   (+) Dipole Moment


------------------------------------------------------------------------------
                       ORCA ELECTRIC PROPERTIES CALCULATION
------------------------------------------------------------------------------

Dipole Moment Calculation                       ... on
Quadrupole Moment Calculation                   ... off
Polarizability Calculation                      ... off
GBWName                                         ... Scan_30.gbw
Electron density file                           ... Scan_30.scfp.tmp

-------------
DIPOLE MOMENT
-------------
                                X             Y             Z
Electronic contribution:      0.01594      -0.00276      -0.00005
Nuclear contribution   :     -0.02350       0.00406       0.00000
                        -----------------------------------------
Total Dipole Moment    :     -0.00756       0.00130      -0.00005
                        -----------------------------------------
Magnitude (a.u.)       :      0.00767
Magnitude (Debye)      :      0.01949


Timings for individual modules:

Sum of individual times         ...       13.692 sec (=   0.228 min)
GTO integral calculation        ...        0.339 sec (=   0.006 min)   2.5 %
SCF iterations                  ...       13.352 sec (=   0.223 min)  97.5 %
                             ****ORCA TERMINATED NORMALLY****
TOTAL RUN TIME: 0 days 0 hours 0 minutes 14 seconds 24 msec
