
                                 *****************
                                 * O   R   C   A *
                                 *****************

           --- An Ab Initio, DFT and Semiempirical electronic structure package ---

                  #######################################################
                  #                        -***-                        #
                  #  Department of molecular theory and spectroscopy    #
                  #              Directorship: Frank Neese              #
                  # Max Planck Institute for Chemical Energy Conversion #
                  #                  D-45470 Muelheim/Ruhr              #
                  #                       Germany                       #
                  #                                                     #
                  #                  All rights reserved                #
                  #                        -***-                        #
                  #######################################################


                         Program Version 4.0.0.2 - RELEASE -


 With contributions from (in alphabetic order):
   Daniel Aravena         : Magnetic Properties
   Michael Atanasov       : Ab Initio Ligand Field Theory
   Ute Becker             : Parallelization
   Martin Brehm           : Molecular dynamics
   Dmytro Bykov           : SCF Hessian
   Vijay G. Chilkuri      : MRCI spin determinant printing
   Dipayan Datta          : RHF DLPNO-CCSD density
   Achintya Kumar Dutta   : EOM-CC, STEOM-CC
   Dmitry Ganyushin       : Spin-Orbit,Spin-Spin,Magnetic field MRCI
   Yang Guo               : DLPNO-NEVPT2, CIM, IAO-localization
   Andreas Hansen         : Spin unrestricted coupled pair/coupled cluster methods
   Lee Huntington         : MR-EOM, pCC
   Robert Izsak           : Overlap fitted RIJCOSX, COSX-SCS-MP3, EOM
   Christian Kollmar      : KDIIS, OOCD, Brueckner-CCSD(T), CCSD density
   Simone Kossmann        : Meta GGA functionals, TD-DFT gradient, OOMP2, MP2 Hessian
   Martin Krupicka        : AUTO-CI
   Dagmar Lenk            : GEPOL surface
   Dimitrios Liakos       : Extrapolation schemes; parallel MDCI
   Dimitrios Manganas     : ROCIS; embedding schemes
   Dimitrios Pantazis     : SARC Basis sets
   Taras Petrenko         : DFT Hessian,TD-DFT gradient, ASA, ECA, R-Raman, ABS, FL, XAS/XES, NRVS
   Peter Pinski           : DLPNO-MP2
   Christoph Reimann      : Effective Core Potentials
   Marius Retegan         : Local ZFS, SOC
   Christoph Riplinger    : Optimizer, TS searches, QM/MM, DLPNO-CCSD(T), (RO)-DLPNO pert. Triples
   Tobias Risthaus        : Range-separated hybrids, TD-DFT gradient, RPA, STAB
   Michael Roemelt        : Restricted open shell CIS
   Masaaki Saitow         : Open-shell DLPNO
   Barbara Sandhoefer     : DKH picture change effects
   Kantharuban Sivalingam : CASSCF convergence, NEVPT2, FIC-MRCI
   Georgi Stoychev        : AutoAux
   Boris Wezisla          : Elementary symmetry handling
   Frank Wennmohs         : Technical directorship


 We gratefully acknowledge several colleagues who have allowed us to
 interface, adapt or use parts of their codes:
   Stefan Grimme, W. Hujo, H. Kruse,             : VdW corrections, initial TS optimization,
                  C. Bannwarth                     DFT functionals, gCP, sTDA/sTD-DF
   Ed Valeev                                     : LibInt (2-el integral package), F12 methods
   Garnet Chan, S. Sharma, J. Yang, R. Olivares  : DMRG
   Ulf Ekstrom                                   : XCFun DFT Library
   Mihaly Kallay                                 : mrcc  (arbitrary order and MRCC methods)
   Jiri Pittner, Ondrej Demel                    : Mk-CCSD
   Frank Weinhold                                : gennbo (NPA and NBO analysis)
   Christopher J. Cramer and Donald G. Truhlar   : smd solvation model


 Your calculation uses the libint2 library for the computation of 2-el integrals
 For citations please refer to: http://libint.valeyev.net

 This ORCA versions uses:
   CBLAS   interface :  Fast vector & matrix operations
   LAPACKE interface :  Fast linear algebra routines
   SCALAPACK package :  Parallel linear algebra routines


Your calculation utilizes the atom-pairwise dispersion correction
with the zero-damping scheme (D30)
Cite in your paper:
S.Grimme, J.Antony, S.Ehrlich and H.Krieg, J.Chem.Phys., 132, (2010), 154104 
   

XCFun DFT library Copyright 2009-2010 Ulf Ekstrom and contributors.
See http://admol.org/xcfun for more information. This is free soft-
ware; see the source code for copying conditions. There is ABSOLUTELY
NO WARRANTY; not even for MERCHANTABILITY or FITNESS FOR A PARTICULAR
PURPOSE. For details see the documentation. Scientific users of this 
library should cite U. Ekstrom, L. Visscher, R. Bast, A. J. Thorvald-
sen and K. Ruud; J.Chem.Theor.Comp. 2010, DOI: 10.1021/ct100117s
XCFun Version 0.99 
Your calculation utilizes the basis: 6-31G(d)
   H-He, Li-Ne : W. J. Hehre, R. Ditchfield and J.A. Pople, J. Chem. Phys. 56, 2257 (1972).
                 Note: He and Ne are unpublished basis sets taken from the Gaussian program.
                 Note: Li and B from J. D. Dill and J. A. Pople, J. Chem. Phys. 62, 2921 (1975).
   Na - Ar     : M. M. Francl, W. J. Pietro, W. J. Hehre, J. S. Binkley, M. S. Gordon, 
                 D. J. DeFrees and J. A. Pople, J. Chem. Phys. 77, 3654 (1982).
   K - Zn      : V. A. Rassolov, J. A. Pople, M. A. Ratner, and T. L. Windus, J. Chem. Phys. 109, 1223 (1998).

================================================================================
                                        WARNINGS
                       Please study these warnings very carefully!
================================================================================

Warning: TCutStore was < 0. Adjusted to Thresh (uncritical)

INFO   : the flag for use of LIBINT has been found!

================================================================================
                                       INPUT FILE
================================================================================
NAME = initial31.inp
|  1> ! WB97X-D3 6-31G(d) VerySlowConv
|  2> ! KDIIS NOSOSCF
|  3> %base "Scan_31"
|  4> 
|  5> %scf
|  6> maxiter 999
|  7> end
|  8> 
|  9> * xyz 0 1
| 10> C          3.676796595738   -3.015089577450    0.156368570553
| 11> H          3.662221114749   -3.012849105121   -0.955130059565
| 12> C          2.140350930257    0.189109075089   -0.152566973291
| 13> H          2.122615923189    0.185475013782    0.958882699748
| 14> C         -1.403451075669    0.462896724291    0.146631549420
| 15> H         -1.408052134593    0.446651129952   -0.964839677660
| 16> C         -3.408765295980   -2.472420665130   -0.146028203451
| 17> H         -3.399997576764   -2.471575381786    0.965536222059
| 18> C         -1.872621366110   -5.678148639795    0.148230175740
| 19> H         -1.876376419267   -5.660868130169   -0.963230140492
| 20> C          1.671293462904   -5.948595266352   -0.152649826821
| 21> H          1.654595841546   -5.940695177317    0.958795663761
| 22> **                         ****END OF INPUT****
================================================================================

                       ****************************
                       * Single Point Calculation *
                       ****************************

---------------------------------
CARTESIAN COORDINATES (ANGSTROEM)
---------------------------------
  C      3.676797   -3.015090    0.156369
  H      3.662221   -3.012849   -0.955130
  C      2.140351    0.189109   -0.152567
  H      2.122616    0.185475    0.958883
  C     -1.403451    0.462897    0.146632
  H     -1.408052    0.446651   -0.964840
  C     -3.408765   -2.472421   -0.146028
  H     -3.399998   -2.471575    0.965536
  C     -1.872621   -5.678149    0.148230
  H     -1.876376   -5.660868   -0.963230
  C      1.671293   -5.948595   -0.152650
  H      1.654596   -5.940695    0.958796

----------------------------
CARTESIAN COORDINATES (A.U.)
----------------------------
  NO LB      ZA    FRAG     MASS         X           Y           Z
   0 C     6.0000    0    12.011    6.948139   -5.697694    0.295494
   1 H     1.0000    0     1.008    6.920595   -5.693460   -1.804934
   2 C     6.0000    0    12.011    4.044677    0.357364   -0.288310
   3 H     1.0000    0     1.008    4.011163    0.350497    1.812026
   4 C     6.0000    0    12.011   -2.652138    0.874748    0.277093
   5 H     1.0000    0     1.008   -2.660833    0.844048   -1.823283
   6 C     6.0000    0    12.011   -6.441633   -4.672198   -0.275953
   7 H     1.0000    0     1.008   -6.425064   -4.670601    1.824599
   8 C     6.0000    0    12.011   -3.538742  -10.730146    0.280114
   9 H     1.0000    0     1.008   -3.545838  -10.697490   -1.820241
  10 C     6.0000    0    12.011    3.158287  -11.241216   -0.288466
  11 H     1.0000    0     1.008    3.126733  -11.226287    1.811861

--------------------------------
INTERNAL COORDINATES (ANGSTROEM)
--------------------------------
 C      0   0   0     0.000000000000     0.00000000     0.00000000
 H      1   0   0     1.111596450658     0.00000000     0.00000000
 C      1   2   0     3.566930817686    84.60266364     0.00000000
 H      3   1   2     1.111597099931    85.25829440   178.46130393
 C      3   1   2     3.566933149087   119.31694644    97.72934737
 H      5   3   1     1.111599468201    85.36079395   262.40542989
 C      5   3   1     3.566934682577   119.24216995   343.41536439
 H      7   5   3     1.111599325055    85.00289144    97.84534360
 C      7   5   3     3.566933979561   119.38698364    16.32195819
 H      9   7   5     1.111600985514    84.38105860   262.09957828
 C      1   2   3     3.566930166480    84.70168215   120.14172574
 H     11   1   2     1.111598983672    85.18024003   181.63200455

---------------------------
INTERNAL COORDINATES (A.U.)
---------------------------
 C      0   0   0     0.000000000000     0.00000000     0.00000000
 H      1   0   0     2.100612863183     0.00000000     0.00000000
 C      1   2   0     6.740522384070    84.60266364     0.00000000
 H      3   1   2     2.100614090131    85.25829440   178.46130393
 C      3   1   2     6.740526789779   119.31694644    97.72934737
 H      5   3   1     2.100618565513    85.36079395   262.40542989
 C      5   3   1     6.740529687656   119.24216995   343.41536439
 H      7   5   3     2.100618295006    85.00289144    97.84534360
 C      7   5   3     6.740528359149   119.38698364    16.32195819
 H      9   7   5     2.100621432818    84.38105860   262.09957828
 C      1   2   3     6.740521153469    84.70168215   120.14172574
 H     11   1   2     2.100617649885    85.18024003   181.63200455

---------------------
BASIS SET INFORMATION
---------------------
There are 2 groups of distinct atoms

 Group   1 Type C   : 10s4p1d contracted to 3s2p1d pattern {631/31/1}
 Group   2 Type H   : 4s contracted to 2s pattern {31}

Atom   0C    basis set group =>   1
Atom   1H    basis set group =>   2
Atom   2C    basis set group =>   1
Atom   3H    basis set group =>   2
Atom   4C    basis set group =>   1
Atom   5H    basis set group =>   2
Atom   6C    basis set group =>   1
Atom   7H    basis set group =>   2
Atom   8C    basis set group =>   1
Atom   9H    basis set group =>   2
Atom  10C    basis set group =>   1
Atom  11H    basis set group =>   2
------------------------------------------------------------------------------
                           ORCA GTO INTEGRAL CALCULATION
------------------------------------------------------------------------------

                         BASIS SET STATISTICS AND STARTUP INFO

 # of primitive gaussian shells          ...  114
 # of primitive gaussian functions       ...  186
 # of contracted shells                  ...   48
 # of contracted basis functions         ...   96
 Highest angular momentum                ...    2
 Maximum contraction depth               ...    6
 Integral package used                   ... LIBINT
 Integral threshhold            Thresh   ...  1.000e-10
 Primitive cut-off              TCut     ...  1.000e-11


------------------------------ INTEGRAL EVALUATION ----------------------------


 * One electron integrals 
 Pre-screening matrix                    ... done
 Shell pair data                         ... done (   0.001 sec)

-------------------------------------------------------------------------------
                                 ORCA SCF
-------------------------------------------------------------------------------

------------
SCF SETTINGS
------------
Hamiltonian:
 Density Functional     Method          .... DFT(GTOs)
 Exchange Functional    Exchange        .... WB97X-D3
 Correlation Functional Correlation     .... WB97X-D3
 Gradients option       PostSCFGGA      .... off
 Hybrid DFT is turned on
   Fraction HF Exchange ScalHFX         ....  0.195728
   Scaling of DF-GGA-X  ScalDFX         ....  0.000000
   Scaling of DF-GGA-C  ScalDFC         ....  1.000000
   Scaling of DF-LDA-C  ScalLDAC        ....  1.000000
   Perturbative correction              ....  0.000000
 Long-range corrected/Screened/Range-Separated Hybrid DFT is turned on
   Amount of maximum screened exact exchange              ....  0.804272
   Range separation parameter mu (erf(mu*r12)/r12)        ....  0.250000


General Settings:
 Integral files         IntName         .... Scan_31
 Hartree-Fock type      HFTyp           .... RHF
 Total Charge           Charge          ....    0
 Multiplicity           Mult            ....    1
 Number of Electrons    NEL             ....   42
 Basis Dimension        Dim             ....   96
 Nuclear Repulsion      ENuc            ....     96.5422230602 Eh

Convergence Acceleration:
 DIIS                   CNVDIIS         .... on
   Start iteration      DIISMaxIt       ....     0
   Startup error        DIISStart       ....  0.200000
   # of expansion vecs  DIISMaxEq       ....     5
   Bias factor          DIISBfac        ....   1.050
   Max. coefficient     DIISMaxC        ....  10.000
 Newton-Raphson         CNVNR           .... off
 SOSCF                  CNVSOSCF        .... off
 Level Shifting         CNVShift        .... off
 Zerner damping         CNVZerner       .... off
 Static damping         CNVDamp         .... off
 Fernandez-Rico         CNVRico         .... off

SCF Procedure:
 Maximum # iterations   MaxIter         ....   999
 SCF integral mode      SCFMode         .... Direct
   Integral package                     .... LIBINT
 Reset frequeny         DirectResetFreq ....    20
 Integral Threshold     Thresh          ....  1.000e-10 Eh
 Primitive CutOff       TCut            ....  1.000e-11 Eh

Convergence Tolerance:
 Convergence Check Mode ConvCheckMode   .... All-Criteria
 Convergence forced     ConvForced      .... 0
 Energy Change          TolE            ....  1.000e-06 Eh
 Max Density Change     TolMaxP         ....  1.000e-05
 RMS Density Change     TolRMSP         ....  1.000e-06
 DIIS Error             TolErr          ....  1.000e-06


Diagonalization of the overlap matrix:
Smallest eigenvalue                        ... 4.488e-02
Time for diagonalization                   ...    0.003 sec
Threshold for overlap eigenvalues          ... 1.000e-08
Number of eigenvalues below threshold      ... 0
Time for construction of square roots      ...    0.005 sec
Total time needed                          ...    0.008 sec

-------------------
DFT GRID GENERATION
-------------------

General Integration Accuracy     IntAcc      ...  4.340
Radial Grid Type                 RadialGrid  ... Gauss-Chebyshev
Angular Grid (max. acc.)         AngularGrid ... Lebedev-110
Angular grid pruning method      GridPruning ... 3 (G Style)
Weight generation scheme         WeightScheme... Becke
Basis function cutoff            BFCut       ...    1.0000e-10
Integration weight cutoff        WCut        ...    1.0000e-14
Grids for H and He will be reduced by one unit

# of grid points (after initial pruning)     ...  14700 (   0.0 sec)
# of grid points (after weights+screening)   ...  14207 (   0.1 sec)
nearest neighbour list constructed           ...    0.0 sec
Grid point re-assignment to atoms done       ...    0.0 sec
Grid point division into batches done        ...    0.0 sec
Reduced shell lists constructed in    0.2 sec

Total number of grid points                  ...    14207
Total number of batches                      ...      228
Average number of points per batch           ...       62
Average number of grid points per atom       ...     1184
Average number of shells per batch           ...    23.07 (48.06%)
Average number of basis functions per batch  ...    44.79 (46.66%)
Average number of large shells per batch     ...    15.20 (65.87%)
Average number of large basis fcns per batch ...    29.72 (66.35%)
Maximum spatial batch extension              ...  22.09, 22.44, 19.63 au
Average spatial batch extension              ...   5.13,  5.06,  4.48 au

Time for grid setup =    0.453 sec

------------------------------
INITIAL GUESS: MODEL POTENTIAL
------------------------------
Loading Hartree-Fock densities                     ... done
Calculating cut-offs                               ... done
Setting up the integral package                    ... done
Initializing the effective Hamiltonian             ... done
Starting the Coulomb interaction                   ... done (   0.1 sec)
Reading the grid                                   ... done
Mapping shells                                     ... done
Starting the XC term evaluation                    ... done (   0.1 sec)
  promolecular density results
     # of electrons  =     41.995419442
     EX              =    -31.544909668
     EC              =     -1.142082144
     EX+EC           =    -32.686991812
Transforming the Hamiltonian                       ... done (   0.0 sec)
Diagonalizing the Hamiltonian                      ... done (   0.0 sec)
Back transforming the eigenvectors                 ... done (   0.0 sec)
Now organizing SCF variables                       ... done
                      ------------------
                      INITIAL GUESS DONE (   0.7 sec)
                      ------------------
--------------
SCF ITERATIONS
--------------
ITER       Energy         Delta-E        Max-DP      RMS-DP      [F,P]   Gradient Norm
               ***  Starting incremental Fock matrix formation  ***
                             ****Resetting KDIIS****
                             ****Turning on KDIIS(Cayley)****
  0   -230.4981264961   0.000000000000 0.00509288  0.00032006  0.0312488   0.026268048
  1   -230.5029288437  -0.004802347552 0.00908881  0.00074918  0.0280315   0.023795193
  2   -230.5129713897  -0.010042546002 0.02154964  0.00171286  0.0233162   0.019345583
  3   -230.5295777430  -0.016606353277 0.03805714  0.00350592  0.0142205   0.011782863
  4   -230.5409776615  -0.011399918552 0.00481520  0.00046223  0.0025932   0.001583903
  5   -230.5412768121  -0.000299150535 0.00050960  0.00003532  0.0002560   0.000179747
  6   -230.5412800607  -0.000003248619 0.00040912  0.00001797  0.0001590   0.000118367
                          ***Energy convergence achieved***
  7   -230.5412809101  -0.000000849403 0.00027811  0.00001671  0.0001274   0.000088540
  8   -230.5412816891  -0.000000778973 0.00013967  0.00000840  0.0000826   0.000042198
  9   -230.5412819241  -0.000000235042 0.00011376  0.00000735  0.0000722   0.000023052
 10   -230.5412820867  -0.000000162556 0.00012692  0.00000733  0.0000523   0.000017801
 11   -230.5412822278  -0.000000141167 0.00013152  0.00000735  0.0000431   0.000016441
 12   -230.5412823488  -0.000000120979 0.00015662  0.00000782  0.0000332   0.000015653
 13   -230.5412824639  -0.000000115121 0.00019921  0.00000938  0.0000256   0.000013857
 14   -230.5412825775  -0.000000113564 0.00022337  0.00001150  0.0000186   0.000013579
 15   -230.5412826859  -0.000000108419 0.00022268  0.00001188  0.0000190   0.000009602
 16   -230.5412827593  -0.000000073356 0.00017552  0.00000921  0.0000146   0.000006777

            ***Energy convergence in two consecutive cycles with***
                    ***'reasonable' density convergence***
                       *** signaling convergence ***

                    *** KDIIS BlockDiag ( 0.002 sec) ***

               *****************************************************
               *                     SUCCESS                       *
               *           SCF CONVERGED AFTER  17 CYCLES          *
               *****************************************************

Setting up the final grid:

General Integration Accuracy     IntAcc      ...  4.670
Radial Grid Type                 RadialGrid  ... Gauss-Chebyshev
Angular Grid (max. acc.)         AngularGrid ... Lebedev-302
Angular grid pruning method      GridPruning ... 3 (G Style)
Weight generation scheme         WeightScheme... Becke
Basis function cutoff            BFCut       ...    1.0000e-10
Integration weight cutoff        WCut        ...    1.0000e-14
Grids for H and He will be reduced by one unit

# of grid points (after initial pruning)     ...  57636 (   0.0 sec)
# of grid points (after weights+screening)   ...  55803 (   0.1 sec)
nearest neighbour list constructed           ...    0.0 sec
Grid point re-assignment to atoms done       ...    0.0 sec
Grid point division into batches done        ...    0.2 sec
Reduced shell lists constructed in    0.7 sec

Total number of grid points                  ...    55803
Total number of batches                      ...      876
Average number of points per batch           ...       63
Average number of grid points per atom       ...     4650
Average number of shells per batch           ...    19.90 (41.46%)
Average number of basis functions per batch  ...    38.36 (39.96%)
Average number of large shells per batch     ...    12.90 (64.83%)
Average number of large basis fcns per batch ...    24.94 (65.00%)
Maximum spatial batch extension              ...  20.37, 22.11, 22.30 au
Average spatial batch extension              ...   3.19,  3.31,  3.04 au

Final grid set up in    0.8 sec
Final integration                            ... done (   0.6 sec)
Change in XC energy                          ...     0.000716067
Integrated number of electrons               ...    42.000005137
Previous integrated no of electrons          ...    42.001681860

----------------
TOTAL SCF ENERGY
----------------

Total Energy       :         -230.54056672 Eh           -6273.32775 eV

Components:
Nuclear Repulsion  :           96.54222306 Eh            2627.04745 eV
Electronic Energy  :         -327.08278978 Eh           -8900.37520 eV
One Electron Energy:         -498.54821772 Eh          -13566.18670 eV
Two Electron Energy:          171.46542794 Eh            4665.81150 eV

Virial components:
Potential Energy   :         -459.59968202 Eh          -12506.34316 eV
Kinetic Energy     :          229.05911530 Eh            6233.01541 eV
Virial Ratio       :            2.00646755


DFT components:
N(Alpha)           :       21.000002568433 electrons
N(Beta)            :       21.000002568433 electrons
N(Total)           :       42.000005136865 electrons
E(XC)              :      -22.732864430705 Eh       

---------------
SCF CONVERGENCE
---------------

  Last Energy change         ...   -3.0430e-08  Tolerance :   1.0000e-06
  Last MAX-Density change    ...    9.1817e-05  Tolerance :   1.0000e-05
  Last RMS-Density change    ...    4.8854e-06  Tolerance :   1.0000e-06
  Last DIIS Error            ...    9.8702e-06  Tolerance :   1.0000e-06

             **** THE GBW FILE WAS UPDATED (Scan_31.gbw) ****
             **** DENSITY FILE WAS UPDATED (Scan_31.scfp.tmp) ****
             **** ENERGY FILE WAS UPDATED (Scan_31.en.tmp) ****
----------------
ORBITAL ENERGIES
----------------

  NO   OCC          E(Eh)            E(eV) 
   0   2.0000     -10.409278      -283.2509 
   1   2.0000     -10.409276      -283.2508 
   2   2.0000     -10.409239      -283.2498 
   3   2.0000     -10.409224      -283.2494 
   4   2.0000     -10.408957      -283.2421 
   5   2.0000     -10.408808      -283.2381 
   6   2.0000      -0.750742       -20.4287 
   7   2.0000      -0.748027       -20.3548 
   8   2.0000      -0.747914       -20.3518 
   9   2.0000      -0.741727       -20.1834 
  10   2.0000      -0.741625       -20.1806 
  11   2.0000      -0.738322       -20.0908 
  12   2.0000      -0.411751       -11.2043 
  13   2.0000      -0.411262       -11.1910 
  14   2.0000      -0.411138       -11.1876 
  15   2.0000      -0.409174       -11.1342 
  16   2.0000      -0.409074       -11.1315 
  17   2.0000      -0.407789       -11.0965 
  18   2.0000      -0.280176        -7.6240 
  19   2.0000      -0.243879        -6.6363 
  20   2.0000      -0.243710        -6.6317 
  21   0.0000      -0.096090        -2.6147 
  22   0.0000      -0.095627        -2.6021 
  23   0.0000      -0.052659        -1.4329 
  24   0.0000      -0.051606        -1.4043 
  25   0.0000      -0.040598        -1.1047 
  26   0.0000      -0.040436        -1.1003 
  27   0.0000      -0.029601        -0.8055 
  28   0.0000      -0.029277        -0.7967 
  29   0.0000      -0.024463        -0.6657 
  30   0.0000       0.213170         5.8007 
  31   0.0000       0.218970         5.9585 
  32   0.0000       0.219056         5.9608 
  33   0.0000       0.230660         6.2766 
  34   0.0000       0.230690         6.2774 
  35   0.0000       0.236476         6.4348 
  36   0.0000       0.555185        15.1073 
  37   0.0000       0.566716        15.4211 
  38   0.0000       0.566881        15.4256 
  39   0.0000       0.570112        15.5135 
  40   0.0000       0.579452        15.7677 
  41   0.0000       0.579709        15.7747 
  42   0.0000       0.624001        16.9799 
  43   0.0000       0.639612        17.4047 
  44   0.0000       0.639807        17.4100 
  45   0.0000       0.665318        18.1042 
  46   0.0000       0.665375        18.1058 
  47   0.0000       0.676005        18.3950 
  48   0.0000       0.676106        18.3978 
  49   0.0000       0.677020        18.4227 
  50   0.0000       0.677220        18.4281 
  51   0.0000       0.690868        18.7995 
  52   0.0000       0.691155        18.8073 
  53   0.0000       0.694532        18.8992 
  54   0.0000       0.819038        22.2871 
  55   0.0000       0.840355        22.8672 
  56   0.0000       0.840514        22.8715 
  57   0.0000       0.873319        23.7642 
  58   0.0000       0.873404        23.7665 
  59   0.0000       0.895054        24.3557 
  60   0.0000       0.966432        26.2980 
  61   0.0000       0.969893        26.3921 
  62   0.0000       0.969946        26.3936 
  63   0.0000       0.988978        26.9114 
  64   0.0000       0.989046        26.9133 
  65   0.0000       1.005463        27.3600 
  66   0.0000       1.745641        47.5013 
  67   0.0000       1.745650        47.5016 
  68   0.0000       1.745822        47.5062 
  69   0.0000       1.745832        47.5065 
  70   0.0000       1.746212        47.5168 
  71   0.0000       1.746283        47.5188 
  72   0.0000       1.759405        47.8758 
  73   0.0000       1.759741        47.8850 
  74   0.0000       1.759845        47.8878 
  75   0.0000       1.760463        47.9046 
  76   0.0000       1.760566        47.9074 
  77   0.0000       1.760734        47.9120 
  78   0.0000       1.772503        48.2323 
  79   0.0000       1.772851        48.2417 
  80   0.0000       1.773638        48.2631 
  81   0.0000       1.774272        48.2804 
  82   0.0000       1.774434        48.2848 
  83   0.0000       1.774984        48.2998 
  84   0.0000       1.775955        48.3262 
  85   0.0000       1.776400        48.3383 
  86   0.0000       1.777184        48.3596 
  87   0.0000       1.777233        48.3610 
  88   0.0000       1.777456        48.3670 
  89   0.0000       1.777591        48.3707 
  90   0.0000       2.201987        59.9191 
  91   0.0000       2.202275        59.9270 
  92   0.0000       2.202392        59.9301 
  93   0.0000       2.204199        59.9793 
  94   0.0000       2.204285        59.9816 
  95   0.0000       2.205375        60.0113 

                    ********************************
                    * MULLIKEN POPULATION ANALYSIS *
                    ********************************

-----------------------
MULLIKEN ATOMIC CHARGES
-----------------------
   0 C :   -0.170177
   1 H :    0.170421
   2 C :   -0.169823
   3 H :    0.170327
   4 C :   -0.170348
   5 H :    0.170232
   6 C :   -0.171401
   7 H :    0.170197
   8 C :   -0.170198
   9 H :    0.170280
  10 C :   -0.169824
  11 H :    0.170314
Sum of atomic charges:   -0.0000000

--------------------------------
MULLIKEN REDUCED ORBITAL CHARGES
--------------------------------
  0 C s       :     3.921216  s :     3.921216
      pz      :     1.233443  p :     2.234209
      px      :     0.016541
      py      :     0.984225
      dz2     :     0.014102  d :     0.014752
      dxz     :     0.000014
      dyz     :     0.000547
      dx2y2   :     0.000043
      dxy     :     0.000045
  1 H s       :     0.829579  s :     0.829579
  2 C s       :     3.920971  s :     3.920971
      pz      :     1.233612  p :     2.234113
      px      :     0.680657
      py      :     0.319844
      dz2     :     0.014091  d :     0.014739
      dxz     :     0.000383
      dyz     :     0.000175
      dx2y2   :     0.000047
      dxy     :     0.000042
  3 H s       :     0.829673  s :     0.829673
  4 C s       :     3.920944  s :     3.920944
      pz      :     1.233518  p :     2.234662
      px      :     0.812285
      py      :     0.188859
      dz2     :     0.014094  d :     0.014742
      dxz     :     0.000450
      dyz     :     0.000109
      dx2y2   :     0.000043
      dxy     :     0.000045
  5 H s       :     0.829768  s :     0.829768
  6 C s       :     3.921084  s :     3.921084
      pz      :     1.233328  p :     2.235572
      px      :     0.016467
      py      :     0.985776
      dz2     :     0.014102  d :     0.014746
      dxz     :     0.000011
      dyz     :     0.000546
      dx2y2   :     0.000043
      dxy     :     0.000043
  7 H s       :     0.829803  s :     0.829803
  8 C s       :     3.920914  s :     3.920914
      pz      :     1.233610  p :     2.234548
      px      :     0.681349
      py      :     0.319589
      dz2     :     0.014089  d :     0.014736
      dxz     :     0.000377
      dyz     :     0.000181
      dx2y2   :     0.000044
      dxy     :     0.000045
  9 H s       :     0.829720  s :     0.829720
 10 C s       :     3.921029  s :     3.921029
      pz      :     1.233532  p :     2.234050
      px      :     0.811393
      py      :     0.189125
      dz2     :     0.014095  d :     0.014745
      dxz     :     0.000456
      dyz     :     0.000105
      dx2y2   :     0.000047
      dxy     :     0.000042
 11 H s       :     0.829686  s :     0.829686


                     *******************************
                     * LOEWDIN POPULATION ANALYSIS *
                     *******************************

----------------------
LOEWDIN ATOMIC CHARGES
----------------------
   0 C :   -0.117444
   1 H :    0.117670
   2 C :   -0.117267
   3 H :    0.117753
   4 C :   -0.117774
   5 H :    0.117669
   6 C :   -0.118701
   7 H :    0.117537
   8 C :   -0.117646
   9 H :    0.117727
  10 C :   -0.117237
  11 H :    0.117714

-------------------------------
LOEWDIN REDUCED ORBITAL CHARGES
-------------------------------
  0 C s       :     3.754153  s :     3.754153
      pz      :     1.341536  p :     2.343363
      px      :     0.016986
      py      :     0.984841
      dz2     :     0.019276  d :     0.019928
      dxz     :     0.000017
      dyz     :     0.000544
      dx2y2   :     0.000044
      dxy     :     0.000047
  1 H s       :     0.882330  s :     0.882330
  2 C s       :     3.754109  s :     3.754109
      pz      :     1.341666  p :     2.343243
      px      :     0.681244
      py      :     0.320334
      dz2     :     0.019262  d :     0.019915
      dxz     :     0.000385
      dyz     :     0.000175
      dx2y2   :     0.000049
      dxy     :     0.000044
  3 H s       :     0.882247  s :     0.882247
  4 C s       :     3.754059  s :     3.754059
      pz      :     1.341605  p :     2.343798
      px      :     0.812845
      py      :     0.189348
      dz2     :     0.019266  d :     0.019917
      dxz     :     0.000448
      dyz     :     0.000112
      dx2y2   :     0.000045
      dxy     :     0.000047
  5 H s       :     0.882331  s :     0.882331
  6 C s       :     3.754034  s :     3.754034
      pz      :     1.341490  p :     2.344743
      px      :     0.016898
      py      :     0.986355
      dz2     :     0.019280  d :     0.019924
      dxz     :     0.000012
      dyz     :     0.000543
      dx2y2   :     0.000044
      dxy     :     0.000046
  7 H s       :     0.882463  s :     0.882463
  8 C s       :     3.754066  s :     3.754066
      pz      :     1.341668  p :     2.343668
      px      :     0.681891
      py      :     0.320109
      dz2     :     0.019261  d :     0.019912
      dxz     :     0.000375
      dyz     :     0.000184
      dx2y2   :     0.000046
      dxy     :     0.000046
  9 H s       :     0.882273  s :     0.882273
 10 C s       :     3.754123  s :     3.754123
      pz      :     1.341605  p :     2.343194
      px      :     0.811997
      py      :     0.189591
      dz2     :     0.019265  d :     0.019921
      dxz     :     0.000457
      dyz     :     0.000105
      dx2y2   :     0.000049
      dxy     :     0.000044
 11 H s       :     0.882286  s :     0.882286


                      *****************************
                      * MAYER POPULATION ANALYSIS *
                      *****************************

  NA   - Mulliken gross atomic population
  ZA   - Total nuclear charge
  QA   - Mulliken gross atomic charge
  VA   - Mayer's total valence
  BVA  - Mayer's bonded valence
  FA   - Mayer's free valence

  ATOM       NA         ZA         QA         VA         BVA        FA
  0 C      6.1702     6.0000    -0.1702     1.9376     1.9376    -0.0000
  1 H      0.8296     1.0000     0.1704     0.9052     0.9052     0.0000
  2 C      6.1698     6.0000    -0.1698     1.9385     1.9385     0.0000
  3 H      0.8297     1.0000     0.1703     0.9053     0.9053    -0.0000
  4 C      6.1703     6.0000    -0.1703     1.9385     1.9385    -0.0000
  5 H      0.8298     1.0000     0.1702     0.9054     0.9054     0.0000
  6 C      6.1714     6.0000    -0.1714     1.9378     1.9378    -0.0000
  7 H      0.8298     1.0000     0.1702     0.9052     0.9052    -0.0000
  8 C      6.1702     6.0000    -0.1702     1.9387     1.9387     0.0000
  9 H      0.8297     1.0000     0.1703     0.9054     0.9054     0.0000
 10 C      6.1698     6.0000    -0.1698     1.9383     1.9383    -0.0000
 11 H      0.8297     1.0000     0.1703     0.9053     0.9053    -0.0000

  Mayer bond orders larger than 0.1
B(  0-C ,  1-H ) :   0.9037 B(  0-C ,  2-C ) :   0.4516 B(  0-C ,  6-C ) :   0.1028 
B(  0-C , 10-C ) :   0.4508 B(  2-C ,  3-H ) :   0.9039 B(  2-C ,  4-C ) :   0.4530 
B(  2-C ,  8-C ) :   0.1011 B(  4-C ,  5-H ) :   0.9039 B(  4-C ,  6-C ) :   0.4508 
B(  4-C , 10-C ) :   0.1018 B(  6-C ,  7-H ) :   0.9038 B(  6-C ,  8-C ) :   0.4516 
B(  8-C ,  9-H ) :   0.9039 B(  8-C , 10-C ) :   0.4530 B( 10-C , 11-H ) :   0.9038 


-------
TIMINGS
-------

Total SCF time: 0 days 0 hours 0 min 22 sec 

Total time                  ....      22.364 sec
Sum of individual times     ....      21.857 sec  ( 97.7%)

Fock matrix formation       ....      20.270 sec  ( 90.6%)
  XC integration            ....       3.682 sec  ( 18.2% of F)
    Basis function eval.    ....       1.693 sec  ( 46.0% of XC)
    Density eval.           ....       0.215 sec  (  5.8% of XC)
    XC-Functional eval.     ....       1.083 sec  ( 29.4% of XC)
    XC-Potential eval.      ....       0.186 sec  (  5.1% of XC)
Diagonalization             ....       0.020 sec  (  0.1%)
Density matrix formation    ....       0.002 sec  (  0.0%)
Population analysis         ....       0.018 sec  (  0.1%)
Initial guess               ....       0.290 sec  (  1.3%)
Orbital Transformation      ....       0.000 sec  (  0.0%)
Orbital Orthonormalization  ....       0.000 sec  (  0.0%)
DIIS solution               ....       0.000 sec  (  0.0%)
Grid generation             ....       1.256 sec  (  5.6%)


-------------------------------------------------------------------------------
                          DFT DISPERSION CORRECTION                            
                                                                               
                              DFTD3 V3.1  Rev 1                                
                              USING zero damping                               
-------------------------------------------------------------------------------
The omegaB97X-D3 functional is recognized. Fit by Chai et al.
Active option DFTDOPT                   ...         3   

molecular C6(AA) [au] = 2491.377294 


            DFT-D V3
 parameters
 s6 scaling factor         :     1.0000 
 rs6 scaling factor        :     1.2810 
 s8 scaling factor         :     1.0000 
 rs8 scaling factor        :     1.0940 
 Damping factor alpha6     :    14.0000 
 Damping factor alpha8     :    16.0000 
 ad hoc parameters k1-k3   :    16.0000     1.3333    -4.0000 

 Edisp/kcal,au: -1.693576611179  -0.002698885834 
 E6   /kcal   :  -0.791493884 
 E8   /kcal   :  -0.902082727 
 % E8         :  53.264949538 

-------------------------   ----------------
Dispersion correction           -0.002698886
-------------------------   ----------------


-------------------------   --------------------
FINAL SINGLE POINT ENERGY      -230.543265608107
-------------------------   --------------------


                            ***************************************
                            *     ORCA property calculations      *
                            ***************************************

                                    ---------------------
                                    Active property flags
                                    ---------------------
   (+) Dipole Moment


------------------------------------------------------------------------------
                       ORCA ELECTRIC PROPERTIES CALCULATION
------------------------------------------------------------------------------

Dipole Moment Calculation                       ... on
Quadrupole Moment Calculation                   ... off
Polarizability Calculation                      ... off
GBWName                                         ... Scan_31.gbw
Electron density file                           ... Scan_31.scfp.tmp

-------------
DIPOLE MOMENT
-------------
                                X             Y             Z
Electronic contribution:      0.02857      -0.00475      -0.00014
Nuclear contribution   :     -0.04206       0.00726       0.00003
                        -----------------------------------------
Total Dipole Moment    :     -0.01349       0.00251      -0.00011
                        -----------------------------------------
Magnitude (a.u.)       :      0.01373
Magnitude (Debye)      :      0.03489


Timings for individual modules:

Sum of individual times         ...       22.721 sec (=   0.379 min)
GTO integral calculation        ...        0.332 sec (=   0.006 min)   1.5 %
SCF iterations                  ...       22.388 sec (=   0.373 min)  98.5 %
                             ****ORCA TERMINATED NORMALLY****
TOTAL RUN TIME: 0 days 0 hours 0 minutes 23 seconds 46 msec
