
                                 *****************
                                 * O   R   C   A *
                                 *****************

           --- An Ab Initio, DFT and Semiempirical electronic structure package ---

                  #######################################################
                  #                        -***-                        #
                  #  Department of molecular theory and spectroscopy    #
                  #              Directorship: Frank Neese              #
                  # Max Planck Institute for Chemical Energy Conversion #
                  #                  D-45470 Muelheim/Ruhr              #
                  #                       Germany                       #
                  #                                                     #
                  #                  All rights reserved                #
                  #                        -***-                        #
                  #######################################################


                         Program Version 4.0.0.2 - RELEASE -


 With contributions from (in alphabetic order):
   Daniel Aravena         : Magnetic Properties
   Michael Atanasov       : Ab Initio Ligand Field Theory
   Ute Becker             : Parallelization
   Martin Brehm           : Molecular dynamics
   Dmytro Bykov           : SCF Hessian
   Vijay G. Chilkuri      : MRCI spin determinant printing
   Dipayan Datta          : RHF DLPNO-CCSD density
   Achintya Kumar Dutta   : EOM-CC, STEOM-CC
   Dmitry Ganyushin       : Spin-Orbit,Spin-Spin,Magnetic field MRCI
   Yang Guo               : DLPNO-NEVPT2, CIM, IAO-localization
   Andreas Hansen         : Spin unrestricted coupled pair/coupled cluster methods
   Lee Huntington         : MR-EOM, pCC
   Robert Izsak           : Overlap fitted RIJCOSX, COSX-SCS-MP3, EOM
   Christian Kollmar      : KDIIS, OOCD, Brueckner-CCSD(T), CCSD density
   Simone Kossmann        : Meta GGA functionals, TD-DFT gradient, OOMP2, MP2 Hessian
   Martin Krupicka        : AUTO-CI
   Dagmar Lenk            : GEPOL surface
   Dimitrios Liakos       : Extrapolation schemes; parallel MDCI
   Dimitrios Manganas     : ROCIS; embedding schemes
   Dimitrios Pantazis     : SARC Basis sets
   Taras Petrenko         : DFT Hessian,TD-DFT gradient, ASA, ECA, R-Raman, ABS, FL, XAS/XES, NRVS
   Peter Pinski           : DLPNO-MP2
   Christoph Reimann      : Effective Core Potentials
   Marius Retegan         : Local ZFS, SOC
   Christoph Riplinger    : Optimizer, TS searches, QM/MM, DLPNO-CCSD(T), (RO)-DLPNO pert. Triples
   Tobias Risthaus        : Range-separated hybrids, TD-DFT gradient, RPA, STAB
   Michael Roemelt        : Restricted open shell CIS
   Masaaki Saitow         : Open-shell DLPNO
   Barbara Sandhoefer     : DKH picture change effects
   Kantharuban Sivalingam : CASSCF convergence, NEVPT2, FIC-MRCI
   Georgi Stoychev        : AutoAux
   Boris Wezisla          : Elementary symmetry handling
   Frank Wennmohs         : Technical directorship


 We gratefully acknowledge several colleagues who have allowed us to
 interface, adapt or use parts of their codes:
   Stefan Grimme, W. Hujo, H. Kruse,             : VdW corrections, initial TS optimization,
                  C. Bannwarth                     DFT functionals, gCP, sTDA/sTD-DF
   Ed Valeev                                     : LibInt (2-el integral package), F12 methods
   Garnet Chan, S. Sharma, J. Yang, R. Olivares  : DMRG
   Ulf Ekstrom                                   : XCFun DFT Library
   Mihaly Kallay                                 : mrcc  (arbitrary order and MRCC methods)
   Jiri Pittner, Ondrej Demel                    : Mk-CCSD
   Frank Weinhold                                : gennbo (NPA and NBO analysis)
   Christopher J. Cramer and Donald G. Truhlar   : smd solvation model


 Your calculation uses the libint2 library for the computation of 2-el integrals
 For citations please refer to: http://libint.valeyev.net

 This ORCA versions uses:
   CBLAS   interface :  Fast vector & matrix operations
   LAPACKE interface :  Fast linear algebra routines
   SCALAPACK package :  Parallel linear algebra routines


Your calculation utilizes the atom-pairwise dispersion correction
with the zero-damping scheme (D30)
Cite in your paper:
S.Grimme, J.Antony, S.Ehrlich and H.Krieg, J.Chem.Phys., 132, (2010), 154104 
   

XCFun DFT library Copyright 2009-2010 Ulf Ekstrom and contributors.
See http://admol.org/xcfun for more information. This is free soft-
ware; see the source code for copying conditions. There is ABSOLUTELY
NO WARRANTY; not even for MERCHANTABILITY or FITNESS FOR A PARTICULAR
PURPOSE. For details see the documentation. Scientific users of this 
library should cite U. Ekstrom, L. Visscher, R. Bast, A. J. Thorvald-
sen and K. Ruud; J.Chem.Theor.Comp. 2010, DOI: 10.1021/ct100117s
XCFun Version 0.99 
Your calculation utilizes the basis: 6-31G(d)
   H-He, Li-Ne : W. J. Hehre, R. Ditchfield and J.A. Pople, J. Chem. Phys. 56, 2257 (1972).
                 Note: He and Ne are unpublished basis sets taken from the Gaussian program.
                 Note: Li and B from J. D. Dill and J. A. Pople, J. Chem. Phys. 62, 2921 (1975).
   Na - Ar     : M. M. Francl, W. J. Pietro, W. J. Hehre, J. S. Binkley, M. S. Gordon, 
                 D. J. DeFrees and J. A. Pople, J. Chem. Phys. 77, 3654 (1982).
   K - Zn      : V. A. Rassolov, J. A. Pople, M. A. Ratner, and T. L. Windus, J. Chem. Phys. 109, 1223 (1998).

================================================================================
                                        WARNINGS
                       Please study these warnings very carefully!
================================================================================

Warning: TCutStore was < 0. Adjusted to Thresh (uncritical)

INFO   : the flag for use of LIBINT has been found!

================================================================================
                                       INPUT FILE
================================================================================
NAME = initial32.inp
|  1> ! WB97X-D3 6-31G(d) VerySlowConv
|  2> ! KDIIS NOSOSCF
|  3> %base "Scan_32"
|  4> 
|  5> %scf
|  6> maxiter 999
|  7> end
|  8> 
|  9> * xyz 0 1
| 10> C          3.775971004918   -3.022783960630    0.197052574083
| 11> H          3.754110304721   -3.019521413302   -0.914232294595
| 12> C          2.196910718218    0.266684059249   -0.191967382924
| 13> H          2.169927752591    0.264922162613    0.919210495199
| 14> C         -1.442299584812    0.550015357080    0.183893764532
| 15> H         -1.452388135856    0.527144125662   -0.927334090752
| 16> C         -3.500186357447   -2.465990121544   -0.182510421085
| 17> H         -3.491641612668   -2.463653854977    0.928961830879
| 18> C         -1.923612022744   -5.759040539606    0.185832510893
| 19> H         -1.933467919779   -5.733025367393   -0.925331148774
| 20> C          1.715965537778   -6.034444497971   -0.192367557987
| 21> H          1.689320315081   -6.026415949186    0.918791720529
| 22> **                         ****END OF INPUT****
================================================================================

                       ****************************
                       * Single Point Calculation *
                       ****************************

---------------------------------
CARTESIAN COORDINATES (ANGSTROEM)
---------------------------------
  C      3.775971   -3.022784    0.197053
  H      3.754110   -3.019521   -0.914232
  C      2.196911    0.266684   -0.191967
  H      2.169928    0.264922    0.919210
  C     -1.442300    0.550015    0.183894
  H     -1.452388    0.527144   -0.927334
  C     -3.500186   -2.465990   -0.182510
  H     -3.491642   -2.463654    0.928962
  C     -1.923612   -5.759041    0.185833
  H     -1.933468   -5.733025   -0.925331
  C      1.715966   -6.034444   -0.192368
  H      1.689320   -6.026416    0.918792

----------------------------
CARTESIAN COORDINATES (A.U.)
----------------------------
  NO LB      ZA    FRAG     MASS         X           Y           Z
   0 C     6.0000    0    12.011    7.135551   -5.712234    0.372375
   1 H     1.0000    0     1.008    7.094240   -5.706069   -1.727649
   2 C     6.0000    0    12.011    4.151560    0.503960   -0.362766
   3 H     1.0000    0     1.008    4.100569    0.500630    1.737056
   4 C     6.0000    0    12.011   -2.725551    1.039378    0.347509
   5 H     1.0000    0     1.008   -2.744616    0.996158   -1.752407
   6 C     6.0000    0    12.011   -6.614394   -4.660046   -0.344895
   7 H     1.0000    0     1.008   -6.598246   -4.655631    1.755483
   8 C     6.0000    0    12.011   -3.635100  -10.883009    0.351173
   9 H     1.0000    0     1.008   -3.653725  -10.833848   -1.748622
  10 C     6.0000    0    12.011    3.242705  -11.403447   -0.363522
  11 H     1.0000    0     1.008    3.192353  -11.388276    1.736265

--------------------------------
INTERNAL COORDINATES (ANGSTROEM)
--------------------------------
 C      0   0   0     0.000000000000     0.00000000     0.00000000
 H      1   0   0     1.111504653063     0.00000000     0.00000000
 C      1   2   0     3.669518738171    83.27595478     0.00000000
 H      3   1   2     1.111506842779    84.43602813   177.75085485
 C      3   1   2     3.669523110184   119.02032128    99.24218257
 H      5   3   1     1.111508982621    84.54930245   260.90981519
 C      5   3   1     3.669528449721   118.84770113   339.82390157
 H      7   5   3     1.111507551792    83.92178115    99.65328449
 C      7   5   3     3.669529152941   119.11832914    19.81867356
 H      9   7   5     1.111511856192    82.80994957   260.27165933
 C      1   2   3     3.669519008819    83.41171646   120.20474736
 H     11   1   2     1.111507700252    84.34372795   182.40606203

---------------------------
INTERNAL COORDINATES (A.U.)
---------------------------
 C      0   0   0     0.000000000000     0.00000000     0.00000000
 H      1   0   0     2.100439390868     0.00000000     0.00000000
 C      1   2   0     6.934385458436    83.27595478     0.00000000
 H      3   1   2     2.100443528831    84.43602813   177.75085485
 C      3   1   2     6.934393720343   119.02032128    99.24218257
 H      5   3   1     2.100447572548    84.54930245   260.90981519
 C      5   3   1     6.934403810606   118.84770113   339.82390157
 H      7   5   3     2.100444868672    83.92178115    99.65328449
 C      7   5   3     6.934405139498   119.11832914    19.81867356
 H      9   7   5     2.100453002810    82.80994957   260.27165933
 C      1   2   3     6.934385969886    83.41171646   120.20474736
 H     11   1   2     2.100445149222    84.34372795   182.40606203

---------------------
BASIS SET INFORMATION
---------------------
There are 2 groups of distinct atoms

 Group   1 Type C   : 10s4p1d contracted to 3s2p1d pattern {631/31/1}
 Group   2 Type H   : 4s contracted to 2s pattern {31}

Atom   0C    basis set group =>   1
Atom   1H    basis set group =>   2
Atom   2C    basis set group =>   1
Atom   3H    basis set group =>   2
Atom   4C    basis set group =>   1
Atom   5H    basis set group =>   2
Atom   6C    basis set group =>   1
Atom   7H    basis set group =>   2
Atom   8C    basis set group =>   1
Atom   9H    basis set group =>   2
Atom  10C    basis set group =>   1
Atom  11H    basis set group =>   2
------------------------------------------------------------------------------
                           ORCA GTO INTEGRAL CALCULATION
------------------------------------------------------------------------------

                         BASIS SET STATISTICS AND STARTUP INFO

 # of primitive gaussian shells          ...  114
 # of primitive gaussian functions       ...  186
 # of contracted shells                  ...   48
 # of contracted basis functions         ...   96
 Highest angular momentum                ...    2
 Maximum contraction depth               ...    6
 Integral package used                   ... LIBINT
 Integral threshhold            Thresh   ...  1.000e-10
 Primitive cut-off              TCut     ...  1.000e-11


------------------------------ INTEGRAL EVALUATION ----------------------------


 * One electron integrals 
 Pre-screening matrix                    ... done
 Shell pair data                         ... done (   0.001 sec)

-------------------------------------------------------------------------------
                                 ORCA SCF
-------------------------------------------------------------------------------

------------
SCF SETTINGS
------------
Hamiltonian:
 Density Functional     Method          .... DFT(GTOs)
 Exchange Functional    Exchange        .... WB97X-D3
 Correlation Functional Correlation     .... WB97X-D3
 Gradients option       PostSCFGGA      .... off
 Hybrid DFT is turned on
   Fraction HF Exchange ScalHFX         ....  0.195728
   Scaling of DF-GGA-X  ScalDFX         ....  0.000000
   Scaling of DF-GGA-C  ScalDFC         ....  1.000000
   Scaling of DF-LDA-C  ScalLDAC        ....  1.000000
   Perturbative correction              ....  0.000000
 Long-range corrected/Screened/Range-Separated Hybrid DFT is turned on
   Amount of maximum screened exact exchange              ....  0.804272
   Range separation parameter mu (erf(mu*r12)/r12)        ....  0.250000


General Settings:
 Integral files         IntName         .... Scan_32
 Hartree-Fock type      HFTyp           .... RHF
 Total Charge           Charge          ....    0
 Multiplicity           Mult            ....    1
 Number of Electrons    NEL             ....   42
 Basis Dimension        Dim             ....   96
 Nuclear Repulsion      ENuc            ....     94.4892062088 Eh

Convergence Acceleration:
 DIIS                   CNVDIIS         .... on
   Start iteration      DIISMaxIt       ....     0
   Startup error        DIISStart       ....  0.200000
   # of expansion vecs  DIISMaxEq       ....     5
   Bias factor          DIISBfac        ....   1.050
   Max. coefficient     DIISMaxC        ....  10.000
 Newton-Raphson         CNVNR           .... off
 SOSCF                  CNVSOSCF        .... off
 Level Shifting         CNVShift        .... off
 Zerner damping         CNVZerner       .... off
 Static damping         CNVDamp         .... off
 Fernandez-Rico         CNVRico         .... off

SCF Procedure:
 Maximum # iterations   MaxIter         ....   999
 SCF integral mode      SCFMode         .... Direct
   Integral package                     .... LIBINT
 Reset frequeny         DirectResetFreq ....    20
 Integral Threshold     Thresh          ....  1.000e-10 Eh
 Primitive CutOff       TCut            ....  1.000e-11 Eh

Convergence Tolerance:
 Convergence Check Mode ConvCheckMode   .... All-Criteria
 Convergence forced     ConvForced      .... 0
 Energy Change          TolE            ....  1.000e-06 Eh
 Max Density Change     TolMaxP         ....  1.000e-05
 RMS Density Change     TolRMSP         ....  1.000e-06
 DIIS Error             TolErr          ....  1.000e-06


Diagonalization of the overlap matrix:
Smallest eigenvalue                        ... 4.556e-02
Time for diagonalization                   ...    0.002 sec
Threshold for overlap eigenvalues          ... 1.000e-08
Number of eigenvalues below threshold      ... 0
Time for construction of square roots      ...    0.006 sec
Total time needed                          ...    0.008 sec

-------------------
DFT GRID GENERATION
-------------------

General Integration Accuracy     IntAcc      ...  4.340
Radial Grid Type                 RadialGrid  ... Gauss-Chebyshev
Angular Grid (max. acc.)         AngularGrid ... Lebedev-110
Angular grid pruning method      GridPruning ... 3 (G Style)
Weight generation scheme         WeightScheme... Becke
Basis function cutoff            BFCut       ...    1.0000e-10
Integration weight cutoff        WCut        ...    1.0000e-14
Grids for H and He will be reduced by one unit

# of grid points (after initial pruning)     ...  14700 (   0.0 sec)
# of grid points (after weights+screening)   ...  14230 (   0.0 sec)
nearest neighbour list constructed           ...    0.0 sec
Grid point re-assignment to atoms done       ...    0.0 sec
Grid point division into batches done        ...    0.0 sec
Reduced shell lists constructed in    0.2 sec

Total number of grid points                  ...    14230
Total number of batches                      ...      229
Average number of points per batch           ...       62
Average number of grid points per atom       ...     1186
Average number of shells per batch           ...    22.29 (46.44%)
Average number of basis functions per batch  ...    43.17 (44.97%)
Average number of large shells per batch     ...    14.65 (65.71%)
Average number of large basis fcns per batch ...    28.70 (66.48%)
Maximum spatial batch extension              ...  23.57, 22.44, 19.77 au
Average spatial batch extension              ...   5.15,  5.13,  4.40 au

Time for grid setup =    0.211 sec

------------------------------
INITIAL GUESS: MODEL POTENTIAL
------------------------------
Loading Hartree-Fock densities                     ... done
Calculating cut-offs                               ... done
Setting up the integral package                    ... done
Initializing the effective Hamiltonian             ... done
Starting the Coulomb interaction                   ... done (   0.0 sec)
Reading the grid                                   ... done
Mapping shells                                     ... done
Starting the XC term evaluation                    ... done (   0.1 sec)
  promolecular density results
     # of electrons  =     41.994448925
     EX              =    -31.544048455
     EC              =     -1.141237272
     EX+EC           =    -32.685285727
Transforming the Hamiltonian                       ... done (   0.0 sec)
Diagonalizing the Hamiltonian                      ... done (   0.0 sec)
Back transforming the eigenvectors                 ... done (   0.0 sec)
Now organizing SCF variables                       ... done
                      ------------------
                      INITIAL GUESS DONE (   0.5 sec)
                      ------------------
--------------
SCF ITERATIONS
--------------
ITER       Energy         Delta-E        Max-DP      RMS-DP      [F,P]   Gradient Norm
               ***  Starting incremental Fock matrix formation  ***
                             ****Resetting KDIIS****
                             ****Turning on KDIIS(Cayley)****
  0   -230.4752751463   0.000000000000 0.00543021  0.00033042  0.0318427   0.026460534
  1   -230.4802354152  -0.004960268931 0.00935014  0.00076609  0.0285217   0.023964342
  2   -230.4905984365  -0.010363021266 0.02214763  0.00176290  0.0237533   0.019523015
  3   -230.5080815054  -0.017483068892 0.04094830  0.00378830  0.0145494   0.011952801
  4   -230.5205709063  -0.012489400947 0.00565763  0.00054952  0.0028900   0.001722043
  5   -230.5209688820  -0.000397975666 0.00079328  0.00003916  0.0002504   0.000229992
  6   -230.5209720350  -0.000003153006 0.00043557  0.00002228  0.0002785   0.000195503
  7   -230.5209739642  -0.000001929185 0.00025341  0.00002265  0.0001367   0.000075066
  8   -230.5209750671  -0.000001102945 0.00017392  0.00000841  0.0000744   0.000045638
                          ***Energy convergence achieved***
  9   -230.5209752938  -0.000000226719 0.00013903  0.00000789  0.0000640   0.000024349
 10   -230.5209754532  -0.000000159329 0.00010889  0.00000628  0.0000448   0.000016749
 11   -230.5209755611  -0.000000107985 0.00012874  0.00000609  0.0000355   0.000014640

            ***Energy convergence in two consecutive cycles with***
                    ***'reasonable' density convergence***
                       *** signaling convergence ***

                    *** KDIIS BlockDiag ( 0.001 sec) ***

               *****************************************************
               *                     SUCCESS                       *
               *           SCF CONVERGED AFTER  12 CYCLES          *
               *****************************************************

Setting up the final grid:

General Integration Accuracy     IntAcc      ...  4.670
Radial Grid Type                 RadialGrid  ... Gauss-Chebyshev
Angular Grid (max. acc.)         AngularGrid ... Lebedev-302
Angular grid pruning method      GridPruning ... 3 (G Style)
Weight generation scheme         WeightScheme... Becke
Basis function cutoff            BFCut       ...    1.0000e-10
Integration weight cutoff        WCut        ...    1.0000e-14
Grids for H and He will be reduced by one unit

# of grid points (after initial pruning)     ...  57636 (   0.0 sec)
# of grid points (after weights+screening)   ...  55882 (   0.1 sec)
nearest neighbour list constructed           ...    0.0 sec
Grid point re-assignment to atoms done       ...    0.0 sec
Grid point division into batches done        ...    0.2 sec
Reduced shell lists constructed in    0.7 sec

Total number of grid points                  ...    55882
Total number of batches                      ...      882
Average number of points per batch           ...       63
Average number of grid points per atom       ...     4657
Average number of shells per batch           ...    18.81 (39.18%)
Average number of basis functions per batch  ...    36.20 (37.71%)
Average number of large shells per batch     ...    12.64 (67.22%)
Average number of large basis fcns per batch ...    24.44 (67.50%)
Maximum spatial batch extension              ...  23.09, 21.69, 22.44 au
Average spatial batch extension              ...   3.22,  3.29,  3.02 au

Final grid set up in    0.8 sec
Final integration                            ... done (   0.5 sec)
Change in XC energy                          ...     0.000539700
Integrated number of electrons               ...    42.000004403
Previous integrated no of electrons          ...    42.000554460

----------------
TOTAL SCF ENERGY
----------------

Total Energy       :         -230.52043595 Eh           -6272.77996 eV

Components:
Nuclear Repulsion  :           94.48920621 Eh            2571.18202 eV
Electronic Energy  :         -325.00964216 Eh           -8843.96198 eV
One Electron Energy:         -494.42243927 Eh          -13453.91856 eV
Two Electron Energy:          169.41279711 Eh            4609.95657 eV

Virial components:
Potential Energy   :         -459.62449936 Eh          -12507.01847 eV
Kinetic Energy     :          229.10406341 Eh            6234.23851 eV
Virial Ratio       :            2.00618222


DFT components:
N(Alpha)           :       21.000002201607 electrons
N(Beta)            :       21.000002201607 electrons
N(Total)           :       42.000004403213 electrons
E(XC)              :      -22.736639189623 Eh       

---------------
SCF CONVERGENCE
---------------

  Last Energy change         ...   -8.9744e-08  Tolerance :   1.0000e-06
  Last MAX-Density change    ...    9.3615e-05  Tolerance :   1.0000e-05
  Last RMS-Density change    ...    4.8677e-06  Tolerance :   1.0000e-06
  Last DIIS Error            ...    3.0633e-05  Tolerance :   1.0000e-06

             **** THE GBW FILE WAS UPDATED (Scan_32.gbw) ****
             **** DENSITY FILE WAS UPDATED (Scan_32.scfp.tmp) ****
             **** ENERGY FILE WAS UPDATED (Scan_32.en.tmp) ****
----------------
ORBITAL ENERGIES
----------------

  NO   OCC          E(Eh)            E(eV) 
   0   2.0000     -10.408627      -283.2331 
   1   2.0000     -10.408620      -283.2329 
   2   2.0000     -10.408583      -283.2319 
   3   2.0000     -10.408545      -283.2309 
   4   2.0000     -10.408358      -283.2258 
   5   2.0000     -10.408071      -283.2180 
   6   2.0000      -0.750362       -20.4184 
   7   2.0000      -0.748001       -20.3541 
   8   2.0000      -0.747893       -20.3512 
   9   2.0000      -0.742502       -20.2045 
  10   2.0000      -0.742412       -20.2021 
  11   2.0000      -0.739551       -20.1242 
  12   2.0000      -0.411817       -11.2061 
  13   2.0000      -0.411215       -11.1897 
  14   2.0000      -0.411096       -11.1865 
  15   2.0000      -0.409226       -11.1356 
  16   2.0000      -0.409132       -11.1330 
  17   2.0000      -0.407969       -11.1014 
  18   2.0000      -0.275507        -7.4969 
  19   2.0000      -0.241159        -6.5623 
  20   2.0000      -0.240923        -6.5558 
  21   0.0000      -0.098963        -2.6929 
  22   0.0000      -0.098398        -2.6775 
  23   0.0000      -0.058173        -1.5830 
  24   0.0000      -0.050781        -1.3818 
  25   0.0000      -0.041045        -1.1169 
  26   0.0000      -0.040868        -1.1121 
  27   0.0000      -0.031104        -0.8464 
  28   0.0000      -0.030752        -0.8368 
  29   0.0000      -0.026550        -0.7225 
  30   0.0000       0.214166         5.8278 
  31   0.0000       0.219189         5.9644 
  32   0.0000       0.219268         5.9666 
  33   0.0000       0.229308         6.2398 
  34   0.0000       0.229343         6.2407 
  35   0.0000       0.234357         6.3772 
  36   0.0000       0.555001        15.1023 
  37   0.0000       0.567587        15.4448 
  38   0.0000       0.567760        15.4495 
  39   0.0000       0.575359        15.6563 
  40   0.0000       0.582324        15.8459 
  41   0.0000       0.582652        15.8548 
  42   0.0000       0.629438        17.1279 
  43   0.0000       0.642599        17.4860 
  44   0.0000       0.642750        17.4901 
  45   0.0000       0.665202        18.1011 
  46   0.0000       0.665272        18.1030 
  47   0.0000       0.676255        18.4018 
  48   0.0000       0.676416        18.4062 
  49   0.0000       0.676817        18.4171 
  50   0.0000       0.676940        18.4205 
  51   0.0000       0.684390        18.6232 
  52   0.0000       0.688106        18.7243 
  53   0.0000       0.698922        19.0186 
  54   0.0000       0.800365        21.7790 
  55   0.0000       0.823037        22.3960 
  56   0.0000       0.823152        22.3991 
  57   0.0000       0.854780        23.2598 
  58   0.0000       0.854874        23.2623 
  59   0.0000       0.873763        23.7763 
  60   0.0000       0.967582        26.3293 
  61   0.0000       0.970197        26.4004 
  62   0.0000       0.970267        26.4023 
  63   0.0000       0.984527        26.7903 
  64   0.0000       0.984603        26.7924 
  65   0.0000       0.996467        27.1152 
  66   0.0000       1.745458        47.4963 
  67   0.0000       1.745464        47.4965 
  68   0.0000       1.745661        47.5019 
  69   0.0000       1.745663        47.5019 
  70   0.0000       1.745985        47.5107 
  71   0.0000       1.746152        47.5152 
  72   0.0000       1.759185        47.8699 
  73   0.0000       1.759462        47.8774 
  74   0.0000       1.759559        47.8800 
  75   0.0000       1.760118        47.8952 
  76   0.0000       1.760219        47.8980 
  77   0.0000       1.760401        47.9029 
  78   0.0000       1.771848        48.2144 
  79   0.0000       1.772021        48.2191 
  80   0.0000       1.772728        48.2384 
  81   0.0000       1.773313        48.2543 
  82   0.0000       1.773646        48.2634 
  83   0.0000       1.774427        48.2846 
  84   0.0000       1.774687        48.2917 
  85   0.0000       1.775492        48.3136 
  86   0.0000       1.776180        48.3323 
  87   0.0000       1.776457        48.3398 
  88   0.0000       1.776718        48.3470 
  89   0.0000       1.776801        48.3492 
  90   0.0000       2.201625        59.9093 
  91   0.0000       2.202156        59.9237 
  92   0.0000       2.202295        59.9275 
  93   0.0000       2.202983        59.9462 
  94   0.0000       2.203058        59.9482 
  95   0.0000       2.203782        59.9679 

                    ********************************
                    * MULLIKEN POPULATION ANALYSIS *
                    ********************************

-----------------------
MULLIKEN ATOMIC CHARGES
-----------------------
   0 C :   -0.168474
   1 H :    0.169301
   2 C :   -0.168474
   3 H :    0.169058
   4 C :   -0.169234
   5 H :    0.169028
   6 C :   -0.170767
   7 H :    0.168844
   8 C :   -0.168986
   9 H :    0.169048
  10 C :   -0.168449
  11 H :    0.169103
Sum of atomic charges:   -0.0000000

--------------------------------
MULLIKEN REDUCED ORBITAL CHARGES
--------------------------------
  0 C s       :     3.922327  s :     3.922327
      pz      :     1.231741  p :     2.231393
      px      :     0.014549
      py      :     0.985103
      dz2     :     0.014105  d :     0.014754
      dxz     :     0.000021
      dyz     :     0.000558
      dx2y2   :     0.000035
      dxy     :     0.000035
  1 H s       :     0.830699  s :     0.830699
  2 C s       :     3.922079  s :     3.922079
      pz      :     1.231839  p :     2.231657
      px      :     0.684492
      py      :     0.315327
      dz2     :     0.014087  d :     0.014738
      dxz     :     0.000405
      dyz     :     0.000176
      dx2y2   :     0.000037
      dxy     :     0.000033
  3 H s       :     0.830942  s :     0.830942
  4 C s       :     3.922049  s :     3.922049
      pz      :     1.231831  p :     2.232444
      px      :     0.815342
      py      :     0.185271
      dz2     :     0.014092  d :     0.014740
      dxz     :     0.000463
      dyz     :     0.000116
      dx2y2   :     0.000032
      dxy     :     0.000037
  5 H s       :     0.830972  s :     0.830972
  6 C s       :     3.922122  s :     3.922122
      pz      :     1.231622  p :     2.233901
      px      :     0.014200
      py      :     0.988079
      dz2     :     0.014111  d :     0.014744
      dxz     :     0.000010
      dyz     :     0.000557
      dx2y2   :     0.000035
      dxy     :     0.000032
  7 H s       :     0.831156  s :     0.831156
  8 C s       :     3.922009  s :     3.922009
      pz      :     1.231900  p :     2.232243
      px      :     0.684549
      py      :     0.315794
      dz2     :     0.014083  d :     0.014734
      dxz     :     0.000389
      dyz     :     0.000192
      dx2y2   :     0.000032
      dxy     :     0.000037
  9 H s       :     0.830952  s :     0.830952
 10 C s       :     3.922156  s :     3.922156
      pz      :     1.231770  p :     2.231547
      px      :     0.814306
      py      :     0.185472
      dz2     :     0.014091  d :     0.014746
      dxz     :     0.000479
      dyz     :     0.000105
      dx2y2   :     0.000038
      dxy     :     0.000032
 11 H s       :     0.830897  s :     0.830897


                     *******************************
                     * LOEWDIN POPULATION ANALYSIS *
                     *******************************

----------------------
LOEWDIN ATOMIC CHARGES
----------------------
   0 C :   -0.116106
   1 H :    0.116906
   2 C :   -0.116346
   3 H :    0.116915
   4 C :   -0.117058
   5 H :    0.116862
   6 C :   -0.118498
   7 H :    0.116624
   8 C :   -0.116846
   9 H :    0.116910
  10 C :   -0.116266
  11 H :    0.116903

-------------------------------
LOEWDIN REDUCED ORBITAL CHARGES
-------------------------------
  0 C s       :     3.755243  s :     3.755243
      pz      :     1.340517  p :     2.340916
      px      :     0.014849
      py      :     0.985550
      dz2     :     0.019294  d :     0.019947
      dxz     :     0.000027
      dyz     :     0.000555
      dx2y2   :     0.000035
      dxy     :     0.000036
  1 H s       :     0.883094  s :     0.883094
  2 C s       :     3.755189  s :     3.755189
      pz      :     1.340638  p :     2.341224
      px      :     0.684941
      py      :     0.315645
      dz2     :     0.019275  d :     0.019933
      dxz     :     0.000412
      dyz     :     0.000175
      dx2y2   :     0.000037
      dxy     :     0.000034
  3 H s       :     0.883085  s :     0.883085
  4 C s       :     3.755131  s :     3.755131
      pz      :     1.340643  p :     2.341993
      px      :     0.815736
      py      :     0.185614
      dz2     :     0.019279  d :     0.019934
      dxz     :     0.000462
      dyz     :     0.000122
      dx2y2   :     0.000033
      dxy     :     0.000037
  5 H s       :     0.883138  s :     0.883138
  6 C s       :     3.755057  s :     3.755057
      pz      :     1.340562  p :     2.343499
      px      :     0.014464
      py      :     0.988473
      dz2     :     0.019309  d :     0.019942
      dxz     :     0.000011
      dyz     :     0.000554
      dx2y2   :     0.000035
      dxy     :     0.000033
  7 H s       :     0.883376  s :     0.883376
  8 C s       :     3.755140  s :     3.755140
      pz      :     1.340678  p :     2.341778
      px      :     0.684924
      py      :     0.316176
      dz2     :     0.019269  d :     0.019928
      dxz     :     0.000388
      dyz     :     0.000200
      dx2y2   :     0.000033
      dxy     :     0.000037
  9 H s       :     0.883090  s :     0.883090
 10 C s       :     3.755208  s :     3.755208
      pz      :     1.340571  p :     2.341119
      px      :     0.814778
      py      :     0.185770
      dz2     :     0.019277  d :     0.019939
      dxz     :     0.000486
      dyz     :     0.000106
      dx2y2   :     0.000039
      dxy     :     0.000033
 11 H s       :     0.883097  s :     0.883097


                      *****************************
                      * MAYER POPULATION ANALYSIS *
                      *****************************

  NA   - Mulliken gross atomic population
  ZA   - Total nuclear charge
  QA   - Mulliken gross atomic charge
  VA   - Mayer's total valence
  BVA  - Mayer's bonded valence
  FA   - Mayer's free valence

  ATOM       NA         ZA         QA         VA         BVA        FA
  0 C      6.1685     6.0000    -0.1685     1.9302     1.9302    -0.0000
  1 H      0.8307     1.0000     0.1693     0.9050     0.9050    -0.0000
  2 C      6.1685     6.0000    -0.1685     1.9311     1.9311     0.0000
  3 H      0.8309     1.0000     0.1691     0.9051     0.9051     0.0000
  4 C      6.1692     6.0000    -0.1692     1.9313     1.9313     0.0000
  5 H      0.8310     1.0000     0.1690     0.9051     0.9051     0.0000
  6 C      6.1708     6.0000    -0.1708     1.9305     1.9305     0.0000
  7 H      0.8312     1.0000     0.1688     0.9051     0.9051     0.0000
  8 C      6.1690     6.0000    -0.1690     1.9314     1.9314    -0.0000
  9 H      0.8310     1.0000     0.1690     0.9052     0.9052    -0.0000
 10 C      6.1684     6.0000    -0.1684     1.9310     1.9310    -0.0000
 11 H      0.8309     1.0000     0.1691     0.9051     0.9051    -0.0000

  Mayer bond orders larger than 0.1
B(  0-C ,  1-H ) :   0.9037 B(  0-C ,  2-C ) :   0.4490 B(  0-C ,  6-C ) :   0.1050 
B(  0-C , 10-C ) :   0.4490 B(  2-C ,  3-H ) :   0.9038 B(  2-C ,  4-C ) :   0.4520 
B(  2-C ,  8-C ) :   0.1027 B(  4-C ,  5-H ) :   0.9039 B(  4-C ,  6-C ) :   0.4485 
B(  4-C , 10-C ) :   0.1032 B(  6-C ,  7-H ) :   0.9038 B(  6-C ,  8-C ) :   0.4496 
B(  8-C ,  9-H ) :   0.9039 B(  8-C , 10-C ) :   0.4514 B( 10-C , 11-H ) :   0.9038 


-------
TIMINGS
-------

Total SCF time: 0 days 0 hours 0 min 14 sec 

Total time                  ....      14.688 sec
Sum of individual times     ....      14.463 sec  ( 98.5%)

Fock matrix formation       ....      13.230 sec  ( 90.1%)
  XC integration            ....       2.427 sec  ( 18.3% of F)
    Basis function eval.    ....       1.068 sec  ( 44.0% of XC)
    Density eval.           ....       0.138 sec  (  5.7% of XC)
    XC-Functional eval.     ....       0.708 sec  ( 29.2% of XC)
    XC-Potential eval.      ....       0.124 sec  (  5.1% of XC)
Diagonalization             ....       0.015 sec  (  0.1%)
Density matrix formation    ....       0.002 sec  (  0.0%)
Population analysis         ....       0.012 sec  (  0.1%)
Initial guess               ....       0.243 sec  (  1.7%)
Orbital Transformation      ....       0.000 sec  (  0.0%)
Orbital Orthonormalization  ....       0.000 sec  (  0.0%)
DIIS solution               ....       0.000 sec  (  0.0%)
Grid generation             ....       0.961 sec  (  6.5%)


-------------------------------------------------------------------------------
                          DFT DISPERSION CORRECTION                            
                                                                               
                              DFTD3 V3.1  Rev 1                                
                              USING zero damping                               
-------------------------------------------------------------------------------
The omegaB97X-D3 functional is recognized. Fit by Chai et al.
Active option DFTDOPT                   ...         3   

molecular C6(AA) [au] = 2491.429776 


            DFT-D V3
 parameters
 s6 scaling factor         :     1.0000 
 rs6 scaling factor        :     1.2810 
 s8 scaling factor         :     1.0000 
 rs8 scaling factor        :     1.0940 
 Damping factor alpha6     :    14.0000 
 Damping factor alpha8     :    16.0000 
 ad hoc parameters k1-k3   :    16.0000     1.3333    -4.0000 

 Edisp/kcal,au: -1.632443920458  -0.002601464701 
 E6   /kcal   :  -0.794885947 
 E8   /kcal   :  -0.837557973 
 % E8         :  51.306998227 

-------------------------   ----------------
Dispersion correction           -0.002601465
-------------------------   ----------------


-------------------------   --------------------
FINAL SINGLE POINT ENERGY      -230.523037415397
-------------------------   --------------------


                            ***************************************
                            *     ORCA property calculations      *
                            ***************************************

                                    ---------------------
                                    Active property flags
                                    ---------------------
   (+) Dipole Moment


------------------------------------------------------------------------------
                       ORCA ELECTRIC PROPERTIES CALCULATION
------------------------------------------------------------------------------

Dipole Moment Calculation                       ... on
Quadrupole Moment Calculation                   ... off
Polarizability Calculation                      ... off
GBWName                                         ... Scan_32.gbw
Electron density file                           ... Scan_32.scfp.tmp

-------------
DIPOLE MOMENT
-------------
                                X             Y             Z
Electronic contribution:      0.05120      -0.00856      -0.00034
Nuclear contribution   :     -0.07521       0.01299       0.00012
                        -----------------------------------------
Total Dipole Moment    :     -0.02400       0.00443      -0.00022
                        -----------------------------------------
Magnitude (a.u.)       :      0.02441
Magnitude (Debye)      :      0.06204


Timings for individual modules:

Sum of individual times         ...       15.028 sec (=   0.250 min)
GTO integral calculation        ...        0.316 sec (=   0.005 min)   2.1 %
SCF iterations                  ...       14.712 sec (=   0.245 min)  97.9 %
                             ****ORCA TERMINATED NORMALLY****
TOTAL RUN TIME: 0 days 0 hours 0 minutes 15 seconds 345 msec
