
                                 *****************
                                 * O   R   C   A *
                                 *****************

           --- An Ab Initio, DFT and Semiempirical electronic structure package ---

                  #######################################################
                  #                        -***-                        #
                  #  Department of molecular theory and spectroscopy    #
                  #              Directorship: Frank Neese              #
                  # Max Planck Institute for Chemical Energy Conversion #
                  #                  D-45470 Muelheim/Ruhr              #
                  #                       Germany                       #
                  #                                                     #
                  #                  All rights reserved                #
                  #                        -***-                        #
                  #######################################################


                         Program Version 4.0.0.2 - RELEASE -


 With contributions from (in alphabetic order):
   Daniel Aravena         : Magnetic Properties
   Michael Atanasov       : Ab Initio Ligand Field Theory
   Ute Becker             : Parallelization
   Martin Brehm           : Molecular dynamics
   Dmytro Bykov           : SCF Hessian
   Vijay G. Chilkuri      : MRCI spin determinant printing
   Dipayan Datta          : RHF DLPNO-CCSD density
   Achintya Kumar Dutta   : EOM-CC, STEOM-CC
   Dmitry Ganyushin       : Spin-Orbit,Spin-Spin,Magnetic field MRCI
   Yang Guo               : DLPNO-NEVPT2, CIM, IAO-localization
   Andreas Hansen         : Spin unrestricted coupled pair/coupled cluster methods
   Lee Huntington         : MR-EOM, pCC
   Robert Izsak           : Overlap fitted RIJCOSX, COSX-SCS-MP3, EOM
   Christian Kollmar      : KDIIS, OOCD, Brueckner-CCSD(T), CCSD density
   Simone Kossmann        : Meta GGA functionals, TD-DFT gradient, OOMP2, MP2 Hessian
   Martin Krupicka        : AUTO-CI
   Dagmar Lenk            : GEPOL surface
   Dimitrios Liakos       : Extrapolation schemes; parallel MDCI
   Dimitrios Manganas     : ROCIS; embedding schemes
   Dimitrios Pantazis     : SARC Basis sets
   Taras Petrenko         : DFT Hessian,TD-DFT gradient, ASA, ECA, R-Raman, ABS, FL, XAS/XES, NRVS
   Peter Pinski           : DLPNO-MP2
   Christoph Reimann      : Effective Core Potentials
   Marius Retegan         : Local ZFS, SOC
   Christoph Riplinger    : Optimizer, TS searches, QM/MM, DLPNO-CCSD(T), (RO)-DLPNO pert. Triples
   Tobias Risthaus        : Range-separated hybrids, TD-DFT gradient, RPA, STAB
   Michael Roemelt        : Restricted open shell CIS
   Masaaki Saitow         : Open-shell DLPNO
   Barbara Sandhoefer     : DKH picture change effects
   Kantharuban Sivalingam : CASSCF convergence, NEVPT2, FIC-MRCI
   Georgi Stoychev        : AutoAux
   Boris Wezisla          : Elementary symmetry handling
   Frank Wennmohs         : Technical directorship


 We gratefully acknowledge several colleagues who have allowed us to
 interface, adapt or use parts of their codes:
   Stefan Grimme, W. Hujo, H. Kruse,             : VdW corrections, initial TS optimization,
                  C. Bannwarth                     DFT functionals, gCP, sTDA/sTD-DF
   Ed Valeev                                     : LibInt (2-el integral package), F12 methods
   Garnet Chan, S. Sharma, J. Yang, R. Olivares  : DMRG
   Ulf Ekstrom                                   : XCFun DFT Library
   Mihaly Kallay                                 : mrcc  (arbitrary order and MRCC methods)
   Jiri Pittner, Ondrej Demel                    : Mk-CCSD
   Frank Weinhold                                : gennbo (NPA and NBO analysis)
   Christopher J. Cramer and Donald G. Truhlar   : smd solvation model


 Your calculation uses the libint2 library for the computation of 2-el integrals
 For citations please refer to: http://libint.valeyev.net

 This ORCA versions uses:
   CBLAS   interface :  Fast vector & matrix operations
   LAPACKE interface :  Fast linear algebra routines
   SCALAPACK package :  Parallel linear algebra routines


Your calculation utilizes the atom-pairwise dispersion correction
with the zero-damping scheme (D30)
Cite in your paper:
S.Grimme, J.Antony, S.Ehrlich and H.Krieg, J.Chem.Phys., 132, (2010), 154104 
   

XCFun DFT library Copyright 2009-2010 Ulf Ekstrom and contributors.
See http://admol.org/xcfun for more information. This is free soft-
ware; see the source code for copying conditions. There is ABSOLUTELY
NO WARRANTY; not even for MERCHANTABILITY or FITNESS FOR A PARTICULAR
PURPOSE. For details see the documentation. Scientific users of this 
library should cite U. Ekstrom, L. Visscher, R. Bast, A. J. Thorvald-
sen and K. Ruud; J.Chem.Theor.Comp. 2010, DOI: 10.1021/ct100117s
XCFun Version 0.99 
Your calculation utilizes the basis: 6-31G(d)
   H-He, Li-Ne : W. J. Hehre, R. Ditchfield and J.A. Pople, J. Chem. Phys. 56, 2257 (1972).
                 Note: He and Ne are unpublished basis sets taken from the Gaussian program.
                 Note: Li and B from J. D. Dill and J. A. Pople, J. Chem. Phys. 62, 2921 (1975).
   Na - Ar     : M. M. Francl, W. J. Pietro, W. J. Hehre, J. S. Binkley, M. S. Gordon, 
                 D. J. DeFrees and J. A. Pople, J. Chem. Phys. 77, 3654 (1982).
   K - Zn      : V. A. Rassolov, J. A. Pople, M. A. Ratner, and T. L. Windus, J. Chem. Phys. 109, 1223 (1998).

================================================================================
                                        WARNINGS
                       Please study these warnings very carefully!
================================================================================

Warning: TCutStore was < 0. Adjusted to Thresh (uncritical)

INFO   : the flag for use of LIBINT has been found!

================================================================================
                                       INPUT FILE
================================================================================
NAME = initial33.inp
|  1> ! WB97X-D3 6-31G(d) VerySlowConv
|  2> ! KDIIS NOSOSCF
|  3> %base "Scan_33"
|  4> 
|  5> %scf
|  6> maxiter 999
|  7> end
|  8> 
|  9> * xyz 0 1
| 10> C          3.878393882829   -3.030189373868    0.233585447004
| 11> H          3.842998902008   -3.026343672107   -0.877334626714
| 12> C          2.253895858867    0.342845043010   -0.226409098114
| 13> H          2.213497784257    0.343802113174    0.884350657836
| 14> C         -1.480569569424    0.638057652098    0.214772834374
| 15> H         -1.497477454711    0.603714553622   -0.896067369549
| 16> C         -3.588542860290   -2.460705285411   -0.212101371771
| 17> H         -3.580424703198   -2.454863832051    0.899351661026
| 18> C         -1.972933737250   -5.842070696263    0.217165189665
| 19> H         -1.992220517587   -5.800169199539   -0.893384160362
| 20> C          1.762566635028   -6.118687249276   -0.227284198783
| 21> H          1.719425779472   -6.111500053394    0.883355035388
| 22> **                         ****END OF INPUT****
================================================================================

                       ****************************
                       * Single Point Calculation *
                       ****************************

---------------------------------
CARTESIAN COORDINATES (ANGSTROEM)
---------------------------------
  C      3.878394   -3.030189    0.233585
  H      3.842999   -3.026344   -0.877335
  C      2.253896    0.342845   -0.226409
  H      2.213498    0.343802    0.884351
  C     -1.480570    0.638058    0.214773
  H     -1.497477    0.603715   -0.896067
  C     -3.588543   -2.460705   -0.212101
  H     -3.580425   -2.454864    0.899352
  C     -1.972934   -5.842071    0.217165
  H     -1.992221   -5.800169   -0.893384
  C      1.762567   -6.118687   -0.227284
  H      1.719426   -6.111500    0.883355

----------------------------
CARTESIAN COORDINATES (A.U.)
----------------------------
  NO LB      ZA    FRAG     MASS         X           Y           Z
   0 C     6.0000    0    12.011    7.329102   -5.726228    0.441413
   1 H     1.0000    0     1.008    7.262215   -5.718961   -1.657922
   2 C     6.0000    0    12.011    4.259246    0.647883   -0.427851
   3 H     1.0000    0     1.008    4.182905    0.649692    1.671181
   4 C     6.0000    0    12.011   -2.797871    1.205754    0.405862
   5 H     1.0000    0     1.008   -2.829822    1.140855   -1.693322
   6 C     6.0000    0    12.011   -6.781363   -4.650059   -0.400814
   7 H     1.0000    0     1.008   -6.766022   -4.639020    1.699528
   8 C     6.0000    0    12.011   -3.728304  -11.039914    0.410383
   9 H     1.0000    0     1.008   -3.764751  -10.960731   -1.688251
  10 C     6.0000    0    12.011    3.330768  -11.562643   -0.429505
  11 H     1.0000    0     1.008    3.249244  -11.549061    1.669299

--------------------------------
INTERNAL COORDINATES (ANGSTROEM)
--------------------------------
 C      0   0   0     0.000000000000     0.00000000     0.00000000
 H      1   0   0     1.111490442729     0.00000000     0.00000000
 C      1   2   0     3.771995491625    82.02760591     0.00000000
 H      3   1   2     1.111494559525    83.94712700   176.56124834
 C      4   3   1     3.765774076786    81.83827604   239.53620013
 H      5   4   3     1.111499565294   100.96494933     1.98574191
 C      5   4   3     3.772016002850   120.27384003    88.53078117
 H      7   5   4     1.111498030212    83.01766783    81.73216652
 C      7   5   4     3.772014668705   118.95961273     3.09284460
 H      9   7   5     1.111506893442    81.08721914   258.87297916
 C      1   2   3     3.771994816983    82.11710346   120.28698480
 H     11   1   2     1.111500021450    83.93766851   183.68884552

---------------------------
INTERNAL COORDINATES (A.U.)
---------------------------
 C      0   0   0     0.000000000000     0.00000000     0.00000000
 H      1   0   0     2.100412537230     0.00000000     0.00000000
 C      1   2   0     7.128038457557    82.02760591     0.00000000
 H      3   1   2     2.100420316846    83.94712700   176.56124834
 C      4   3   1     7.116281687345    81.83827604   239.53620013
 H      5   4   3     2.100429776379   100.96494933     1.98574191
 C      5   4   3     7.128077218155   120.27384003    88.53078117
 H      7   5   4     2.100426875494    83.01766783    81.73216652
 C      7   5   4     7.128074696986   118.95961273     3.09284460
 H      9   7   5     2.100443624571    81.08721914   258.87297916
 C      1   2   3     7.128037182668    82.11710346   120.28698480
 H     11   1   2     2.100430638388    83.93766851   183.68884552

---------------------
BASIS SET INFORMATION
---------------------
There are 2 groups of distinct atoms

 Group   1 Type C   : 10s4p1d contracted to 3s2p1d pattern {631/31/1}
 Group   2 Type H   : 4s contracted to 2s pattern {31}

Atom   0C    basis set group =>   1
Atom   1H    basis set group =>   2
Atom   2C    basis set group =>   1
Atom   3H    basis set group =>   2
Atom   4C    basis set group =>   1
Atom   5H    basis set group =>   2
Atom   6C    basis set group =>   1
Atom   7H    basis set group =>   2
Atom   8C    basis set group =>   1
Atom   9H    basis set group =>   2
Atom  10C    basis set group =>   1
Atom  11H    basis set group =>   2
------------------------------------------------------------------------------
                           ORCA GTO INTEGRAL CALCULATION
------------------------------------------------------------------------------

                         BASIS SET STATISTICS AND STARTUP INFO

 # of primitive gaussian shells          ...  114
 # of primitive gaussian functions       ...  186
 # of contracted shells                  ...   48
 # of contracted basis functions         ...   96
 Highest angular momentum                ...    2
 Maximum contraction depth               ...    6
 Integral package used                   ... LIBINT
 Integral threshhold            Thresh   ...  1.000e-10
 Primitive cut-off              TCut     ...  1.000e-11


------------------------------ INTEGRAL EVALUATION ----------------------------


 * One electron integrals 
 Pre-screening matrix                    ... done
 Shell pair data                         ... done (   0.000 sec)

-------------------------------------------------------------------------------
                                 ORCA SCF
-------------------------------------------------------------------------------

------------
SCF SETTINGS
------------
Hamiltonian:
 Density Functional     Method          .... DFT(GTOs)
 Exchange Functional    Exchange        .... WB97X-D3
 Correlation Functional Correlation     .... WB97X-D3
 Gradients option       PostSCFGGA      .... off
 Hybrid DFT is turned on
   Fraction HF Exchange ScalHFX         ....  0.195728
   Scaling of DF-GGA-X  ScalDFX         ....  0.000000
   Scaling of DF-GGA-C  ScalDFC         ....  1.000000
   Scaling of DF-LDA-C  ScalLDAC        ....  1.000000
   Perturbative correction              ....  0.000000
 Long-range corrected/Screened/Range-Separated Hybrid DFT is turned on
   Amount of maximum screened exact exchange              ....  0.804272
   Range separation parameter mu (erf(mu*r12)/r12)        ....  0.250000


General Settings:
 Integral files         IntName         .... Scan_33
 Hartree-Fock type      HFTyp           .... RHF
 Total Charge           Charge          ....    0
 Multiplicity           Mult            ....    1
 Number of Electrons    NEL             ....   42
 Basis Dimension        Dim             ....   96
 Nuclear Repulsion      ENuc            ....     92.5349887793 Eh

Convergence Acceleration:
 DIIS                   CNVDIIS         .... on
   Start iteration      DIISMaxIt       ....     0
   Startup error        DIISStart       ....  0.200000
   # of expansion vecs  DIISMaxEq       ....     5
   Bias factor          DIISBfac        ....   1.050
   Max. coefficient     DIISMaxC        ....  10.000
 Newton-Raphson         CNVNR           .... off
 SOSCF                  CNVSOSCF        .... off
 Level Shifting         CNVShift        .... off
 Zerner damping         CNVZerner       .... off
 Static damping         CNVDamp         .... off
 Fernandez-Rico         CNVRico         .... off

SCF Procedure:
 Maximum # iterations   MaxIter         ....   999
 SCF integral mode      SCFMode         .... Direct
   Integral package                     .... LIBINT
 Reset frequeny         DirectResetFreq ....    20
 Integral Threshold     Thresh          ....  1.000e-10 Eh
 Primitive CutOff       TCut            ....  1.000e-11 Eh

Convergence Tolerance:
 Convergence Check Mode ConvCheckMode   .... All-Criteria
 Convergence forced     ConvForced      .... 0
 Energy Change          TolE            ....  1.000e-06 Eh
 Max Density Change     TolMaxP         ....  1.000e-05
 RMS Density Change     TolRMSP         ....  1.000e-06
 DIIS Error             TolErr          ....  1.000e-06


Diagonalization of the overlap matrix:
Smallest eigenvalue                        ... 4.618e-02
Time for diagonalization                   ...    0.002 sec
Threshold for overlap eigenvalues          ... 1.000e-08
Number of eigenvalues below threshold      ... 0
Time for construction of square roots      ...    0.005 sec
Total time needed                          ...    0.008 sec

-------------------
DFT GRID GENERATION
-------------------

General Integration Accuracy     IntAcc      ...  4.340
Radial Grid Type                 RadialGrid  ... Gauss-Chebyshev
Angular Grid (max. acc.)         AngularGrid ... Lebedev-110
Angular grid pruning method      GridPruning ... 3 (G Style)
Weight generation scheme         WeightScheme... Becke
Basis function cutoff            BFCut       ...    1.0000e-10
Integration weight cutoff        WCut        ...    1.0000e-14
Grids for H and He will be reduced by one unit

# of grid points (after initial pruning)     ...  14700 (   0.0 sec)
# of grid points (after weights+screening)   ...  14244 (   0.0 sec)
nearest neighbour list constructed           ...    0.0 sec
Grid point re-assignment to atoms done       ...    0.0 sec
Grid point division into batches done        ...    0.0 sec
Reduced shell lists constructed in    0.1 sec

Total number of grid points                  ...    14244
Total number of batches                      ...      228
Average number of points per batch           ...       62
Average number of grid points per atom       ...     1187
Average number of shells per batch           ...    21.24 (44.25%)
Average number of basis functions per batch  ...    41.14 (42.86%)
Average number of large shells per batch     ...    14.45 (68.05%)
Average number of large basis fcns per batch ...    28.30 (68.78%)
Maximum spatial batch extension              ...  22.65, 23.45, 19.76 au
Average spatial batch extension              ...   5.12,  5.21,  4.59 au

Time for grid setup =    0.210 sec

------------------------------
INITIAL GUESS: MODEL POTENTIAL
------------------------------
Loading Hartree-Fock densities                     ... done
Calculating cut-offs                               ... done
Setting up the integral package                    ... done
Initializing the effective Hamiltonian             ... done
Starting the Coulomb interaction                   ... done (   0.0 sec)
Reading the grid                                   ... done
Mapping shells                                     ... done
Starting the XC term evaluation                    ... done (   0.1 sec)
  promolecular density results
     # of electrons  =     41.993640890
     EX              =    -31.543236780
     EC              =     -1.140645916
     EX+EC           =    -32.683882696
Transforming the Hamiltonian                       ... done (   0.0 sec)
Diagonalizing the Hamiltonian                      ... done (   0.0 sec)
Back transforming the eigenvectors                 ... done (   0.0 sec)
Now organizing SCF variables                       ... done
                      ------------------
                      INITIAL GUESS DONE (   0.4 sec)
                      ------------------
--------------
SCF ITERATIONS
--------------
ITER       Energy         Delta-E        Max-DP      RMS-DP      [F,P]   Gradient Norm
               ***  Starting incremental Fock matrix formation  ***
                             ****Resetting KDIIS****
                             ****Turning on KDIIS(Cayley)****
  0   -230.4539231757   0.000000000000 0.00574533  0.00034010  0.0321085   0.026638072
  1   -230.4590298972  -0.005106721417 0.00955432  0.00078080  0.0287151   0.024118876
  2   -230.4696745274  -0.010644630218 0.02280179  0.00180896  0.0239293   0.019686575
  3   -230.4879960148  -0.018321487433 0.04413478  0.00408016  0.0149843   0.012119260
  4   -230.5015993611  -0.013603346301 0.00654310  0.00064144  0.0033472   0.001904126
  5   -230.5021242949  -0.000524933786 0.00133971  0.00005136  0.0005950   0.000437435
  6   -230.5021322457  -0.000007950826 0.00037606  0.00002790  0.0002394   0.000190343
  7   -230.5021355459  -0.000003300175 0.00042475  0.00003343  0.0001432   0.000083014
  8   -230.5021375470  -0.000002001105 0.00023357  0.00001096  0.0000795   0.000060177
                          ***Energy convergence achieved***
  9   -230.5021378990  -0.000000352007 0.00016269  0.00001014  0.0000547   0.000028737
 10   -230.5021381117  -0.000000212735 0.00010110  0.00000534  0.0000371   0.000018528
 11   -230.5021382021  -0.000000090378 0.00010659  0.00000544  0.0000303   0.000016469

            ***Energy convergence in two consecutive cycles with***
                    ***'reasonable' density convergence***
                       *** signaling convergence ***

                    *** KDIIS BlockDiag ( 0.001 sec) ***

               *****************************************************
               *                     SUCCESS                       *
               *           SCF CONVERGED AFTER  12 CYCLES          *
               *****************************************************

Setting up the final grid:

General Integration Accuracy     IntAcc      ...  4.670
Radial Grid Type                 RadialGrid  ... Gauss-Chebyshev
Angular Grid (max. acc.)         AngularGrid ... Lebedev-302
Angular grid pruning method      GridPruning ... 3 (G Style)
Weight generation scheme         WeightScheme... Becke
Basis function cutoff            BFCut       ...    1.0000e-10
Integration weight cutoff        WCut        ...    1.0000e-14
Grids for H and He will be reduced by one unit

# of grid points (after initial pruning)     ...  57636 (   0.0 sec)
# of grid points (after weights+screening)   ...  55961 (   0.1 sec)
nearest neighbour list constructed           ...    0.0 sec
Grid point re-assignment to atoms done       ...    0.0 sec
Grid point division into batches done        ...    0.2 sec
Reduced shell lists constructed in    0.6 sec

Total number of grid points                  ...    55961
Total number of batches                      ...      879
Average number of points per batch           ...       63
Average number of grid points per atom       ...     4663
Average number of shells per batch           ...    17.80 (37.09%)
Average number of basis functions per batch  ...    34.30 (35.73%)
Average number of large shells per batch     ...    12.41 (69.71%)
Average number of large basis fcns per batch ...    24.04 (70.08%)
Maximum spatial batch extension              ...  23.09, 21.78, 22.45 au
Average spatial batch extension              ...   3.25,  3.37,  3.08 au

Final grid set up in    0.7 sec
Final integration                            ... done (   0.4 sec)
Change in XC energy                          ...     0.000434234
Integrated number of electrons               ...    42.000003020
Previous integrated no of electrons          ...    41.999543201

----------------
TOTAL SCF ENERGY
----------------

Total Energy       :         -230.50170405 Eh           -6272.27024 eV

Components:
Nuclear Repulsion  :           92.53498878 Eh            2518.00506 eV
Electronic Energy  :         -323.03669283 Eh           -8790.27530 eV
One Electron Energy:         -490.50344707 Eh          -13347.27736 eV
Two Electron Energy:          167.46675424 Eh            4557.00206 eV

Virial components:
Potential Energy   :         -459.64952010 Eh          -12507.69932 eV
Kinetic Energy     :          229.14781605 Eh            6235.42908 eV
Virial Ratio       :            2.00590836


DFT components:
N(Alpha)           :       21.000001510216 electrons
N(Beta)            :       21.000001510216 electrons
N(Total)           :       42.000003020432 electrons
E(XC)              :      -22.740888623716 Eh       

---------------
SCF CONVERGENCE
---------------

  Last Energy change         ...   -8.2297e-08  Tolerance :   1.0000e-06
  Last MAX-Density change    ...    5.8403e-05  Tolerance :   1.0000e-05
  Last RMS-Density change    ...    3.1770e-06  Tolerance :   1.0000e-06
  Last DIIS Error            ...    2.7993e-05  Tolerance :   1.0000e-06

             **** THE GBW FILE WAS UPDATED (Scan_33.gbw) ****
             **** DENSITY FILE WAS UPDATED (Scan_33.scfp.tmp) ****
             **** ENERGY FILE WAS UPDATED (Scan_33.en.tmp) ****
----------------
ORBITAL ENERGIES
----------------

  NO   OCC          E(Eh)            E(eV) 
   0   2.0000     -10.407765      -283.2097 
   1   2.0000     -10.407710      -283.2082 
   2   2.0000     -10.407668      -283.2070 
   3   2.0000     -10.407659      -283.2068 
   4   2.0000     -10.407636      -283.2062 
   5   2.0000     -10.407065      -283.1906 
   6   2.0000      -0.749895       -20.4057 
   7   2.0000      -0.747835       -20.3496 
   8   2.0000      -0.747741       -20.3471 
   9   2.0000      -0.743032       -20.2189 
  10   2.0000      -0.742957       -20.2169 
  11   2.0000      -0.740473       -20.1493 
  12   2.0000      -0.411645       -11.2014 
  13   2.0000      -0.411013       -11.1842 
  14   2.0000      -0.410904       -11.1813 
  15   2.0000      -0.409181       -11.1344 
  16   2.0000      -0.409106       -11.1323 
  17   2.0000      -0.408060       -11.1039 
  18   2.0000      -0.270930        -7.3724 
  19   2.0000      -0.238350        -6.4858 
  20   2.0000      -0.238115        -6.4794 
  21   0.0000      -0.101537        -2.7630 
  22   0.0000      -0.101040        -2.7494 
  23   0.0000      -0.064000        -1.7415 
  24   0.0000      -0.048955        -1.3321 
  25   0.0000      -0.041077        -1.1178 
  26   0.0000      -0.040920        -1.1135 
  27   0.0000      -0.032225        -0.8769 
  28   0.0000      -0.031902        -0.8681 
  29   0.0000      -0.028223        -0.7680 
  30   0.0000       0.215098         5.8531 
  31   0.0000       0.219392         5.9700 
  32   0.0000       0.219491         5.9727 
  33   0.0000       0.228076         6.2063 
  34   0.0000       0.228118         6.2074 
  35   0.0000       0.232415         6.3243 
  36   0.0000       0.557231        15.1630 
  37   0.0000       0.570517        15.5246 
  38   0.0000       0.570661        15.5285 
  39   0.0000       0.581838        15.8326 
  40   0.0000       0.586783        15.9672 
  41   0.0000       0.587128        15.9766 
  42   0.0000       0.634274        17.2595 
  43   0.0000       0.645197        17.5567 
  44   0.0000       0.645321        17.5601 
  45   0.0000       0.664003        18.0684 
  46   0.0000       0.664064        18.0701 
  47   0.0000       0.675634        18.3849 
  48   0.0000       0.675804        18.3896 
  49   0.0000       0.678451        18.4616 
  50   0.0000       0.678851        18.4725 
  51   0.0000       0.679296        18.4846 
  52   0.0000       0.685534        18.6543 
  53   0.0000       0.703421        19.1411 
  54   0.0000       0.782497        21.2928 
  55   0.0000       0.806688        21.9511 
  56   0.0000       0.806780        21.9536 
  57   0.0000       0.837197        22.7813 
  58   0.0000       0.837254        22.7828 
  59   0.0000       0.853624        23.2283 
  60   0.0000       0.968745        26.3609 
  61   0.0000       0.970669        26.4133 
  62   0.0000       0.970803        26.4169 
  63   0.0000       0.981144        26.6983 
  64   0.0000       0.981242        26.7010 
  65   0.0000       0.989765        26.9329 
  66   0.0000       1.745491        47.4972 
  67   0.0000       1.745519        47.4980 
  68   0.0000       1.745648        47.5015 
  69   0.0000       1.745676        47.5022 
  70   0.0000       1.745889        47.5081 
  71   0.0000       1.746244        47.5177 
  72   0.0000       1.759135        47.8685 
  73   0.0000       1.759400        47.8757 
  74   0.0000       1.759506        47.8786 
  75   0.0000       1.759993        47.8918 
  76   0.0000       1.760126        47.8955 
  77   0.0000       1.760307        47.9004 
  78   0.0000       1.771519        48.2055 
  79   0.0000       1.771616        48.2081 
  80   0.0000       1.772235        48.2250 
  81   0.0000       1.772715        48.2380 
  82   0.0000       1.773123        48.2491 
  83   0.0000       1.773601        48.2621 
  84   0.0000       1.774597        48.2892 
  85   0.0000       1.775145        48.3041 
  86   0.0000       1.775677        48.3186 
  87   0.0000       1.776083        48.3297 
  88   0.0000       1.776457        48.3399 
  89   0.0000       1.776484        48.3406 
  90   0.0000       2.198990        59.8376 
  91   0.0000       2.200579        59.8808 
  92   0.0000       2.200685        59.8837 
  93   0.0000       2.203288        59.9545 
  94   0.0000       2.203340        59.9559 
  95   0.0000       2.204839        59.9967 

                    ********************************
                    * MULLIKEN POPULATION ANALYSIS *
                    ********************************

-----------------------
MULLIKEN ATOMIC CHARGES
-----------------------
   0 C :   -0.166160
   1 H :    0.168071
   2 C :   -0.167136
   3 H :    0.167601
   4 C :   -0.167866
   5 H :    0.167631
   6 C :   -0.170123
   7 H :    0.167234
   8 C :   -0.167819
   9 H :    0.167671
  10 C :   -0.166789
  11 H :    0.167685
Sum of atomic charges:   -0.0000000

--------------------------------
MULLIKEN REDUCED ORBITAL CHARGES
--------------------------------
  0 C s       :     3.923179  s :     3.923179
      pz      :     1.229460  p :     2.228226
      px      :     0.013369
      py      :     0.985397
      dz2     :     0.014090  d :     0.014754
      dxz     :     0.000044
      dyz     :     0.000563
      dx2y2   :     0.000028
      dxy     :     0.000029
  1 H s       :     0.831929  s :     0.831929
  2 C s       :     3.922958  s :     3.922958
      pz      :     1.229693  p :     2.229442
      px      :     0.686117
      py      :     0.313632
      dz2     :     0.014065  d :     0.014736
      dxz     :     0.000437
      dyz     :     0.000177
      dx2y2   :     0.000030
      dxy     :     0.000027
  3 H s       :     0.832399  s :     0.832399
  4 C s       :     3.922864  s :     3.922864
      pz      :     1.229768  p :     2.230265
      px      :     0.816663
      py      :     0.183834
      dz2     :     0.014071  d :     0.014736
      dxz     :     0.000474
      dyz     :     0.000136
      dx2y2   :     0.000024
      dxy     :     0.000031
  5 H s       :     0.832369  s :     0.832369
  6 C s       :     3.922878  s :     3.922878
      pz      :     1.229643  p :     2.232503
      px      :     0.012304
      py      :     0.990556
      dz2     :     0.014118  d :     0.014742
      dxz     :     0.000008
      dyz     :     0.000565
      dx2y2   :     0.000028
      dxy     :     0.000023
  7 H s       :     0.832766  s :     0.832766
  8 C s       :     3.922879  s :     3.922879
      pz      :     1.229761  p :     2.230212
      px      :     0.685015
      py      :     0.315436
      dz2     :     0.014044  d :     0.014728
      dxz     :     0.000401
      dyz     :     0.000226
      dx2y2   :     0.000024
      dxy     :     0.000032
  9 H s       :     0.832329  s :     0.832329
 10 C s       :     3.923007  s :     3.923007
      pz      :     1.229621  p :     2.229038
      px      :     0.815454
      py      :     0.183963
      dz2     :     0.014062  d :     0.014744
      dxz     :     0.000520
      dyz     :     0.000106
      dx2y2   :     0.000032
      dxy     :     0.000024
 11 H s       :     0.832315  s :     0.832315


                     *******************************
                     * LOEWDIN POPULATION ANALYSIS *
                     *******************************

----------------------
LOEWDIN ATOMIC CHARGES
----------------------
   0 C :   -0.114251
   1 H :    0.116122
   2 C :   -0.115525
   3 H :    0.115981
   4 C :   -0.116196
   5 H :    0.115970
   6 C :   -0.118436
   7 H :    0.115600
   8 C :   -0.116163
   9 H :    0.116022
  10 C :   -0.115122
  11 H :    0.115998

-------------------------------
LOEWDIN REDUCED ORBITAL CHARGES
-------------------------------
  0 C s       :     3.756086  s :     3.756086
      pz      :     1.338842  p :     2.338200
      px      :     0.013623
      py      :     0.985735
      dz2     :     0.019287  d :     0.019965
      dxz     :     0.000061
      dyz     :     0.000561
      dx2y2   :     0.000028
      dxy     :     0.000029
  1 H s       :     0.883878  s :     0.883878
  2 C s       :     3.756012  s :     3.756012
      pz      :     1.339201  p :     2.339561
      px      :     0.686527
      py      :     0.313833
      dz2     :     0.019263  d :     0.019952
      dxz     :     0.000456
      dyz     :     0.000177
      dx2y2   :     0.000030
      dxy     :     0.000027
  3 H s       :     0.884019  s :     0.884019
  4 C s       :     3.755930  s :     3.755930
      pz      :     1.339238  p :     2.340316
      px      :     0.816960
      py      :     0.184118
      dz2     :     0.019268  d :     0.019950
      dxz     :     0.000475
      dyz     :     0.000151
      dx2y2   :     0.000025
      dxy     :     0.000031
  5 H s       :     0.884030  s :     0.884030
  6 C s       :     3.755815  s :     3.755815
      pz      :     1.339374  p :     2.342660
      px      :     0.012458
      py      :     0.990828
      dz2     :     0.019338  d :     0.019961
      dxz     :     0.000009
      dyz     :     0.000563
      dx2y2   :     0.000028
      dxy     :     0.000023
  7 H s       :     0.884400  s :     0.884400
  8 C s       :     3.755959  s :     3.755959
      pz      :     1.339170  p :     2.340262
      px      :     0.685298
      py      :     0.315794
      dz2     :     0.019233  d :     0.019942
      dxz     :     0.000404
      dyz     :     0.000248
      dx2y2   :     0.000024
      dxy     :     0.000032
  9 H s       :     0.883978  s :     0.883978
 10 C s       :     3.756028  s :     3.756028
      pz      :     1.339075  p :     2.339135
      px      :     0.815913
      py      :     0.184146
      dz2     :     0.019254  d :     0.019958
      dxz     :     0.000541
      dyz     :     0.000106
      dx2y2   :     0.000032
      dxy     :     0.000025
 11 H s       :     0.884002  s :     0.884002


                      *****************************
                      * MAYER POPULATION ANALYSIS *
                      *****************************

  NA   - Mulliken gross atomic population
  ZA   - Total nuclear charge
  QA   - Mulliken gross atomic charge
  VA   - Mayer's total valence
  BVA  - Mayer's bonded valence
  FA   - Mayer's free valence

  ATOM       NA         ZA         QA         VA         BVA        FA
  0 C      6.1662     6.0000    -0.1662     1.9246     1.9246    -0.0000
  1 H      0.8319     1.0000     0.1681     0.9048     0.9048     0.0000
  2 C      6.1671     6.0000    -0.1671     1.9253     1.9253     0.0000
  3 H      0.8324     1.0000     0.1676     0.9050     0.9050    -0.0000
  4 C      6.1679     6.0000    -0.1679     1.9256     1.9256     0.0000
  5 H      0.8324     1.0000     0.1676     0.9050     0.9050    -0.0000
  6 C      6.1701     6.0000    -0.1701     1.9249     1.9249     0.0000
  7 H      0.8328     1.0000     0.1672     0.9050     0.9050    -0.0000
  8 C      6.1678     6.0000    -0.1678     1.9257     1.9257    -0.0000
  9 H      0.8323     1.0000     0.1677     0.9051     0.9051     0.0000
 10 C      6.1668     6.0000    -0.1668     1.9251     1.9251    -0.0000
 11 H      0.8323     1.0000     0.1677     0.9050     0.9050     0.0000

  Mayer bond orders larger than 0.1
B(  0-C ,  1-H ) :   0.9037 B(  0-C ,  2-C ) :   0.4471 B(  0-C ,  6-C ) :   0.1065 
B(  0-C , 10-C ) :   0.4482 B(  2-C ,  3-H ) :   0.9039 B(  2-C ,  4-C ) :   0.4511 
B(  2-C ,  8-C ) :   0.1041 B(  4-C ,  5-H ) :   0.9039 B(  4-C ,  6-C ) :   0.4466 
B(  4-C , 10-C ) :   0.1046 B(  6-C ,  7-H ) :   0.9040 B(  6-C ,  8-C ) :   0.4487 
B(  8-C ,  9-H ) :   0.9039 B(  8-C , 10-C ) :   0.4495 B( 10-C , 11-H ) :   0.9038 


-------
TIMINGS
-------

Total SCF time: 0 days 0 hours 0 min 14 sec 

Total time                  ....      14.192 sec
Sum of individual times     ....      13.947 sec  ( 98.3%)

Fock matrix formation       ....      12.718 sec  ( 89.6%)
  XC integration            ....       2.600 sec  ( 20.4% of F)
    Basis function eval.    ....       1.011 sec  ( 38.9% of XC)
    Density eval.           ....       0.134 sec  (  5.1% of XC)
    XC-Functional eval.     ....       0.703 sec  ( 27.0% of XC)
    XC-Potential eval.      ....       0.121 sec  (  4.6% of XC)
Diagonalization             ....       0.014 sec  (  0.1%)
Density matrix formation    ....       0.002 sec  (  0.0%)
Population analysis         ....       0.021 sec  (  0.1%)
Initial guess               ....       0.234 sec  (  1.6%)
Orbital Transformation      ....       0.000 sec  (  0.0%)
Orbital Orthonormalization  ....       0.000 sec  (  0.0%)
DIIS solution               ....       0.000 sec  (  0.0%)
Grid generation             ....       0.959 sec  (  6.8%)


-------------------------------------------------------------------------------
                          DFT DISPERSION CORRECTION                            
                                                                               
                              DFTD3 V3.1  Rev 1                                
                              USING zero damping                               
-------------------------------------------------------------------------------
The omegaB97X-D3 functional is recognized. Fit by Chai et al.
Active option DFTDOPT                   ...         3   

molecular C6(AA) [au] = 2491.471553 


            DFT-D V3
 parameters
 s6 scaling factor         :     1.0000 
 rs6 scaling factor        :     1.2810 
 s8 scaling factor         :     1.0000 
 rs8 scaling factor        :     1.0940 
 Damping factor alpha6     :    14.0000 
 Damping factor alpha8     :    16.0000 
 ad hoc parameters k1-k3   :    16.0000     1.3333    -4.0000 

 Edisp/kcal,au: -1.549707104415  -0.002469615206 
 E6   /kcal   :  -0.793872802 
 E8   /kcal   :  -0.755834302 
 % E8         :  48.772719691 

-------------------------   ----------------
Dispersion correction           -0.002469615
-------------------------   ----------------


-------------------------   --------------------
FINAL SINGLE POINT ENERGY      -230.504173665698
-------------------------   --------------------


                            ***************************************
                            *     ORCA property calculations      *
                            ***************************************

                                    ---------------------
                                    Active property flags
                                    ---------------------
   (+) Dipole Moment


------------------------------------------------------------------------------
                       ORCA ELECTRIC PROPERTIES CALCULATION
------------------------------------------------------------------------------

Dipole Moment Calculation                       ... on
Quadrupole Moment Calculation                   ... off
Polarizability Calculation                      ... off
GBWName                                         ... Scan_33.gbw
Electron density file                           ... Scan_33.scfp.tmp

-------------
DIPOLE MOMENT
-------------
                                X             Y             Z
Electronic contribution:      0.08663      -0.01432      -0.00066
Nuclear contribution   :     -0.12724       0.02198       0.00047
                        -----------------------------------------
Total Dipole Moment    :     -0.04061       0.00765      -0.00019
                        -----------------------------------------
Magnitude (a.u.)       :      0.04133
Magnitude (Debye)      :      0.10504


Timings for individual modules:

Sum of individual times         ...       14.530 sec (=   0.242 min)
GTO integral calculation        ...        0.317 sec (=   0.005 min)   2.2 %
SCF iterations                  ...       14.214 sec (=   0.237 min)  97.8 %
                             ****ORCA TERMINATED NORMALLY****
TOTAL RUN TIME: 0 days 0 hours 0 minutes 14 seconds 848 msec
