
                                 *****************
                                 * O   R   C   A *
                                 *****************

           --- An Ab Initio, DFT and Semiempirical electronic structure package ---

                  #######################################################
                  #                        -***-                        #
                  #  Department of molecular theory and spectroscopy    #
                  #              Directorship: Frank Neese              #
                  # Max Planck Institute for Chemical Energy Conversion #
                  #                  D-45470 Muelheim/Ruhr              #
                  #                       Germany                       #
                  #                                                     #
                  #                  All rights reserved                #
                  #                        -***-                        #
                  #######################################################


                         Program Version 4.0.0.2 - RELEASE -


 With contributions from (in alphabetic order):
   Daniel Aravena         : Magnetic Properties
   Michael Atanasov       : Ab Initio Ligand Field Theory
   Ute Becker             : Parallelization
   Martin Brehm           : Molecular dynamics
   Dmytro Bykov           : SCF Hessian
   Vijay G. Chilkuri      : MRCI spin determinant printing
   Dipayan Datta          : RHF DLPNO-CCSD density
   Achintya Kumar Dutta   : EOM-CC, STEOM-CC
   Dmitry Ganyushin       : Spin-Orbit,Spin-Spin,Magnetic field MRCI
   Yang Guo               : DLPNO-NEVPT2, CIM, IAO-localization
   Andreas Hansen         : Spin unrestricted coupled pair/coupled cluster methods
   Lee Huntington         : MR-EOM, pCC
   Robert Izsak           : Overlap fitted RIJCOSX, COSX-SCS-MP3, EOM
   Christian Kollmar      : KDIIS, OOCD, Brueckner-CCSD(T), CCSD density
   Simone Kossmann        : Meta GGA functionals, TD-DFT gradient, OOMP2, MP2 Hessian
   Martin Krupicka        : AUTO-CI
   Dagmar Lenk            : GEPOL surface
   Dimitrios Liakos       : Extrapolation schemes; parallel MDCI
   Dimitrios Manganas     : ROCIS; embedding schemes
   Dimitrios Pantazis     : SARC Basis sets
   Taras Petrenko         : DFT Hessian,TD-DFT gradient, ASA, ECA, R-Raman, ABS, FL, XAS/XES, NRVS
   Peter Pinski           : DLPNO-MP2
   Christoph Reimann      : Effective Core Potentials
   Marius Retegan         : Local ZFS, SOC
   Christoph Riplinger    : Optimizer, TS searches, QM/MM, DLPNO-CCSD(T), (RO)-DLPNO pert. Triples
   Tobias Risthaus        : Range-separated hybrids, TD-DFT gradient, RPA, STAB
   Michael Roemelt        : Restricted open shell CIS
   Masaaki Saitow         : Open-shell DLPNO
   Barbara Sandhoefer     : DKH picture change effects
   Kantharuban Sivalingam : CASSCF convergence, NEVPT2, FIC-MRCI
   Georgi Stoychev        : AutoAux
   Boris Wezisla          : Elementary symmetry handling
   Frank Wennmohs         : Technical directorship


 We gratefully acknowledge several colleagues who have allowed us to
 interface, adapt or use parts of their codes:
   Stefan Grimme, W. Hujo, H. Kruse,             : VdW corrections, initial TS optimization,
                  C. Bannwarth                     DFT functionals, gCP, sTDA/sTD-DF
   Ed Valeev                                     : LibInt (2-el integral package), F12 methods
   Garnet Chan, S. Sharma, J. Yang, R. Olivares  : DMRG
   Ulf Ekstrom                                   : XCFun DFT Library
   Mihaly Kallay                                 : mrcc  (arbitrary order and MRCC methods)
   Jiri Pittner, Ondrej Demel                    : Mk-CCSD
   Frank Weinhold                                : gennbo (NPA and NBO analysis)
   Christopher J. Cramer and Donald G. Truhlar   : smd solvation model


 Your calculation uses the libint2 library for the computation of 2-el integrals
 For citations please refer to: http://libint.valeyev.net

 This ORCA versions uses:
   CBLAS   interface :  Fast vector & matrix operations
   LAPACKE interface :  Fast linear algebra routines
   SCALAPACK package :  Parallel linear algebra routines


Your calculation utilizes the atom-pairwise dispersion correction
with the zero-damping scheme (D30)
Cite in your paper:
S.Grimme, J.Antony, S.Ehrlich and H.Krieg, J.Chem.Phys., 132, (2010), 154104 
   

XCFun DFT library Copyright 2009-2010 Ulf Ekstrom and contributors.
See http://admol.org/xcfun for more information. This is free soft-
ware; see the source code for copying conditions. There is ABSOLUTELY
NO WARRANTY; not even for MERCHANTABILITY or FITNESS FOR A PARTICULAR
PURPOSE. For details see the documentation. Scientific users of this 
library should cite U. Ekstrom, L. Visscher, R. Bast, A. J. Thorvald-
sen and K. Ruud; J.Chem.Theor.Comp. 2010, DOI: 10.1021/ct100117s
XCFun Version 0.99 
Your calculation utilizes the basis: 6-31G(d)
   H-He, Li-Ne : W. J. Hehre, R. Ditchfield and J.A. Pople, J. Chem. Phys. 56, 2257 (1972).
                 Note: He and Ne are unpublished basis sets taken from the Gaussian program.
                 Note: Li and B from J. D. Dill and J. A. Pople, J. Chem. Phys. 62, 2921 (1975).
   Na - Ar     : M. M. Francl, W. J. Pietro, W. J. Hehre, J. S. Binkley, M. S. Gordon, 
                 D. J. DeFrees and J. A. Pople, J. Chem. Phys. 77, 3654 (1982).
   K - Zn      : V. A. Rassolov, J. A. Pople, M. A. Ratner, and T. L. Windus, J. Chem. Phys. 109, 1223 (1998).

================================================================================
                                        WARNINGS
                       Please study these warnings very carefully!
================================================================================

Warning: TCutStore was < 0. Adjusted to Thresh (uncritical)

INFO   : the flag for use of LIBINT has been found!

================================================================================
                                       INPUT FILE
================================================================================
NAME = initial35.inp
|  1> ! WB97X-D3 6-31G(d) VerySlowConv
|  2> ! KDIIS NOSOSCF
|  3> %base "Scan_35"
|  4> 
|  5> %scf
|  6> maxiter 999
|  7> end
|  8> 
|  9> * xyz 0 1
| 10> C          4.213687910952   -2.563032361994    0.385242595299
| 11> H          3.998575596811   -3.557582623577   -0.073033321370
| 12> C          1.955029873096    0.633369313195   -0.320941578097
| 13> H          2.689693861544    0.285413077490    0.427469621302
| 14> C         -1.998711842385    0.588583390948    0.097044689533
| 15> H         -1.173769524276    0.931864177767   -0.577963388725
| 16> C         -3.794240843925   -2.958119126440    0.017314320594
| 17> H         -3.743920901346   -1.932719364362    0.448118771767
| 18> C         -1.662256731086   -6.312189231649    0.100525100569
| 19> H         -2.505925314154   -5.621507499426   -0.136110226124
| 20> C          2.279054922975   -5.967893330008   -0.308100318159
| 21> H          1.301392991802   -6.442296421929   -0.059566266520
| 22> **                         ****END OF INPUT****
================================================================================

                       ****************************
                       * Single Point Calculation *
                       ****************************

---------------------------------
CARTESIAN COORDINATES (ANGSTROEM)
---------------------------------
  C      4.213688   -2.563032    0.385243
  H      3.998576   -3.557583   -0.073033
  C      1.955030    0.633369   -0.320942
  H      2.689694    0.285413    0.427470
  C     -1.998712    0.588583    0.097045
  H     -1.173770    0.931864   -0.577963
  C     -3.794241   -2.958119    0.017314
  H     -3.743921   -1.932719    0.448119
  C     -1.662257   -6.312189    0.100525
  H     -2.505925   -5.621507   -0.136110
  C      2.279055   -5.967893   -0.308100
  H      1.301393   -6.442296   -0.059566

----------------------------
CARTESIAN COORDINATES (A.U.)
----------------------------
  NO LB      ZA    FRAG     MASS         X           Y           Z
   0 C     6.0000    0    12.011    7.962716   -4.843429    0.728003
   1 H     1.0000    0     1.008    7.556213   -6.722857   -0.138013
   2 C     6.0000    0    12.011    3.694471    1.196895   -0.606492
   3 H     1.0000    0     1.008    5.082785    0.539353    0.807801
   4 C     6.0000    0    12.011   -3.777018    1.112261    0.183388
   5 H     1.0000    0     1.008   -2.218103    1.760968   -1.092193
   6 C     6.0000    0    12.011   -7.170076   -5.590035    0.032719
   7 H     1.0000    0     1.008   -7.074985   -3.652310    0.846822
   8 C     6.0000    0    12.011   -3.141210  -11.928309    0.189965
   9 H     1.0000    0     1.008   -4.735513  -10.623110   -0.257211
  10 C     6.0000    0    12.011    4.306790  -11.277684   -0.582225
  11 H     1.0000    0     1.008    2.459276  -12.174176   -0.112564

--------------------------------
INTERNAL COORDINATES (ANGSTROEM)
--------------------------------
 C      0   0   0     0.000000000000     0.00000000     0.00000000
 H      1   0   0     1.115984026010     0.00000000     0.00000000
 C      1   2   0     3.977086356603   122.26700354     0.00000000
 H      3   1   2     1.104954316374    41.32667199   160.56945877
 C      3   1   2     3.976027144210   122.48067344    51.37690403
 H      5   3   1     1.119824732947    36.93067309   224.04820147
 C      5   3   1     3.976101114653   117.19296557   339.38682718
 H      7   5   3     1.113359440541    31.82070412   142.82094725
 C      7   5   3     3.975181324413   120.66507919     9.46039652
 H      9   7   5     1.115712423128    21.20110373   210.13528025
 C      2   1   3     2.970118775784   150.14755392   291.41060065
 H     11   2   1     1.114742266227   146.66401694    11.72129080

---------------------------
INTERNAL COORDINATES (A.U.)
---------------------------
 C      0   0   0     0.000000000000     0.00000000     0.00000000
 H      1   0   0     2.108904178989     0.00000000     0.00000000
 C      1   2   0     7.515604024934   122.26700354     0.00000000
 H      3   1   2     2.088061048442    41.32667199   160.56945877
 C      3   1   2     7.513602403594   122.48067344    51.37690403
 H      5   3   1     2.116162063261    36.93067309   224.04820147
 C      5   3   1     7.513742187474   117.19296557   339.38682718
 H      7   5   3     2.103944431238    31.82070412   142.82094725
 C      7   5   3     7.512004035818   120.66507919     9.46039652
 H      9   7   5     2.108390923925    21.20110373   210.13528025
 C      2   1   3     5.612711071449   150.14755392   291.41060065
 H     11   2   1     2.106557593076   146.66401694    11.72129080

---------------------
BASIS SET INFORMATION
---------------------
There are 2 groups of distinct atoms

 Group   1 Type C   : 10s4p1d contracted to 3s2p1d pattern {631/31/1}
 Group   2 Type H   : 4s contracted to 2s pattern {31}

Atom   0C    basis set group =>   1
Atom   1H    basis set group =>   2
Atom   2C    basis set group =>   1
Atom   3H    basis set group =>   2
Atom   4C    basis set group =>   1
Atom   5H    basis set group =>   2
Atom   6C    basis set group =>   1
Atom   7H    basis set group =>   2
Atom   8C    basis set group =>   1
Atom   9H    basis set group =>   2
Atom  10C    basis set group =>   1
Atom  11H    basis set group =>   2
------------------------------------------------------------------------------
                           ORCA GTO INTEGRAL CALCULATION
------------------------------------------------------------------------------

                         BASIS SET STATISTICS AND STARTUP INFO

 # of primitive gaussian shells          ...  114
 # of primitive gaussian functions       ...  186
 # of contracted shells                  ...   48
 # of contracted basis functions         ...   96
 Highest angular momentum                ...    2
 Maximum contraction depth               ...    6
 Integral package used                   ... LIBINT
 Integral threshhold            Thresh   ...  1.000e-10
 Primitive cut-off              TCut     ...  1.000e-11


------------------------------ INTEGRAL EVALUATION ----------------------------


 * One electron integrals 
 Pre-screening matrix                    ... done
 Shell pair data                         ... done (   0.001 sec)

-------------------------------------------------------------------------------
                                 ORCA SCF
-------------------------------------------------------------------------------

------------
SCF SETTINGS
------------
Hamiltonian:
 Density Functional     Method          .... DFT(GTOs)
 Exchange Functional    Exchange        .... WB97X-D3
 Correlation Functional Correlation     .... WB97X-D3
 Gradients option       PostSCFGGA      .... off
 Hybrid DFT is turned on
   Fraction HF Exchange ScalHFX         ....  0.195728
   Scaling of DF-GGA-X  ScalDFX         ....  0.000000
   Scaling of DF-GGA-C  ScalDFC         ....  1.000000
   Scaling of DF-LDA-C  ScalLDAC        ....  1.000000
   Perturbative correction              ....  0.000000
 Long-range corrected/Screened/Range-Separated Hybrid DFT is turned on
   Amount of maximum screened exact exchange              ....  0.804272
   Range separation parameter mu (erf(mu*r12)/r12)        ....  0.250000


General Settings:
 Integral files         IntName         .... Scan_35
 Hartree-Fock type      HFTyp           .... RHF
 Total Charge           Charge          ....    0
 Multiplicity           Mult            ....    1
 Number of Electrons    NEL             ....   42
 Basis Dimension        Dim             ....   96
 Nuclear Repulsion      ENuc            ....     89.5610322098 Eh

Convergence Acceleration:
 DIIS                   CNVDIIS         .... on
   Start iteration      DIISMaxIt       ....     0
   Startup error        DIISStart       ....  0.200000
   # of expansion vecs  DIISMaxEq       ....     5
   Bias factor          DIISBfac        ....   1.050
   Max. coefficient     DIISMaxC        ....  10.000
 Newton-Raphson         CNVNR           .... off
 SOSCF                  CNVSOSCF        .... off
 Level Shifting         CNVShift        .... off
 Zerner damping         CNVZerner       .... off
 Static damping         CNVDamp         .... off
 Fernandez-Rico         CNVRico         .... off

SCF Procedure:
 Maximum # iterations   MaxIter         ....   999
 SCF integral mode      SCFMode         .... Direct
   Integral package                     .... LIBINT
 Reset frequeny         DirectResetFreq ....    20
 Integral Threshold     Thresh          ....  1.000e-10 Eh
 Primitive CutOff       TCut            ....  1.000e-11 Eh

Convergence Tolerance:
 Convergence Check Mode ConvCheckMode   .... All-Criteria
 Convergence forced     ConvForced      .... 0
 Energy Change          TolE            ....  1.000e-06 Eh
 Max Density Change     TolMaxP         ....  1.000e-05
 RMS Density Change     TolRMSP         ....  1.000e-06
 DIIS Error             TolErr          ....  1.000e-06


Diagonalization of the overlap matrix:
Smallest eigenvalue                        ... 3.487e-02
Time for diagonalization                   ...    0.002 sec
Threshold for overlap eigenvalues          ... 1.000e-08
Number of eigenvalues below threshold      ... 0
Time for construction of square roots      ...    0.038 sec
Total time needed                          ...    0.040 sec

-------------------
DFT GRID GENERATION
-------------------

General Integration Accuracy     IntAcc      ...  4.340
Radial Grid Type                 RadialGrid  ... Gauss-Chebyshev
Angular Grid (max. acc.)         AngularGrid ... Lebedev-110
Angular grid pruning method      GridPruning ... 3 (G Style)
Weight generation scheme         WeightScheme... Becke
Basis function cutoff            BFCut       ...    1.0000e-10
Integration weight cutoff        WCut        ...    1.0000e-14
Grids for H and He will be reduced by one unit

# of grid points (after initial pruning)     ...  14700 (   0.0 sec)
# of grid points (after weights+screening)   ...  14364 (   0.2 sec)
nearest neighbour list constructed           ...    0.0 sec
Grid point re-assignment to atoms done       ...    0.0 sec
Grid point division into batches done        ...    0.1 sec
Reduced shell lists constructed in    0.4 sec

Total number of grid points                  ...    14364
Total number of batches                      ...      233
Average number of points per batch           ...       61
Average number of grid points per atom       ...     1197
Average number of shells per batch           ...    19.73 (41.11%)
Average number of basis functions per batch  ...    38.21 (39.80%)
Average number of large shells per batch     ...    13.38 (67.79%)
Average number of large basis fcns per batch ...    26.02 (68.09%)
Maximum spatial batch extension              ...  20.78, 20.33, 25.60 au
Average spatial batch extension              ...   4.76,  4.93,  5.72 au

Time for grid setup =    0.690 sec

------------------------------
INITIAL GUESS: MODEL POTENTIAL
------------------------------
Loading Hartree-Fock densities                     ... done
Calculating cut-offs                               ... done
Setting up the integral package                    ... done
Initializing the effective Hamiltonian             ... done
Starting the Coulomb interaction                   ... done (   0.2 sec)
Reading the grid                                   ... done
Mapping shells                                     ... done
Starting the XC term evaluation                    ... done (   0.2 sec)
  promolecular density results
     # of electrons  =     41.997352235
     EX              =    -31.545121484
     EC              =     -1.142093576
     EX+EC           =    -32.687215059
Transforming the Hamiltonian                       ... done (   0.0 sec)
Diagonalizing the Hamiltonian                      ... done (   0.0 sec)
Back transforming the eigenvectors                 ... done (   0.0 sec)
Now organizing SCF variables                       ... done
                      ------------------
                      INITIAL GUESS DONE (   1.3 sec)
                      ------------------
--------------
SCF ITERATIONS
--------------
ITER       Energy         Delta-E        Max-DP      RMS-DP      [F,P]   Gradient Norm
               ***  Starting incremental Fock matrix formation  ***
                             ****Resetting KDIIS****
                             ****Turning on KDIIS(Cayley)****
  0   -229.9924005347   0.000000000000 0.04550114  0.00157767  0.1464939   0.086537767
  1   -230.0934210033  -0.101020468572 0.04550577  0.00240377  0.1271901   0.069098413
  2   -230.2257497571  -0.132328753862 0.08560409  0.00390947  0.0934669   0.047680780
  3   -230.3458503805  -0.120100623363 0.06992361  0.00370049  0.0269576   0.017683047
  4   -230.3754300287  -0.029579648224 0.03921974  0.00155192  0.0259268   0.015263443
  5   -230.3896797573  -0.014249728607 0.02771987  0.00217332  0.0161696   0.008512095
  6   -230.4097245734  -0.020044816011 0.05243908  0.00419436  0.0124322   0.007364051
  7   -230.4320920143  -0.022367440949 0.01912701  0.00087372  0.0063769   0.005484059
  8   -230.4346532384  -0.002561224133 0.00901435  0.00060968  0.0031065   0.002563589
  9   -230.4355898540  -0.000936615578 0.01173602  0.00073423  0.0028860   0.001897934
 10   -230.4363869969  -0.000797142872 0.00580048  0.00036673  0.0027072   0.001705354
 11   -230.4365782472  -0.000191250347 0.00270839  0.00015815  0.0013887   0.000923838
 12   -230.4366678905  -0.000089643300 0.00209869  0.00010765  0.0010773   0.000538298
 13   -230.4367258331  -0.000057942605 0.00246728  0.00015282  0.0010028   0.000490649
 14   -230.4368100621  -0.000084228979 0.00430508  0.00024880  0.0009626   0.000441066
 15   -230.4369403082  -0.000130246113 0.00418071  0.00023086  0.0010006   0.000402290
 16   -230.4370576643  -0.000117356069 0.00467940  0.00024905  0.0008774   0.000393181
 17   -230.4371828427  -0.000125178436 0.00505475  0.00027436  0.0008652   0.000402754
 18   -230.4373160319  -0.000133189212 0.00418572  0.00022230  0.0007980   0.000383562
 19   -230.4374252702  -0.000109238271 0.00070774  0.00003850  0.0008164   0.000379267
               *** Restarting incremental Fock matrix formation ***
                             ****Resetting KDIIS****
 20   -230.4374442679  -0.000018997710 0.00016969  0.00000926  0.0008395   0.000375887
 21   -230.4374489279  -0.000004659994 0.00024339  0.00001331  0.0008404   0.000375717
 22   -230.4374556077  -0.000006679824 0.00193934  0.00010691  0.0008400   0.000375567
 23   -230.4374022587   0.000053349089 0.00412844  0.00023736  0.0007904   0.000370747
Warning: badly conditioned DIIS matrix, 1 vectors out of 5 destroyed
 24   -230.4372920812   0.000110177415 0.00204632  0.00012860  0.0007283   0.000366892
 25   -230.4372415725   0.000050508781 0.00660974  0.00042009  0.0006811   0.000357818
 26   -230.4373892202  -0.000147647706 0.00339994  0.00019180  0.0007204   0.000339703
 27   -230.4374579853  -0.000068765181 0.00448360  0.00025939  0.0006663   0.000314485
 28   -230.4375505356  -0.000092550258 0.00577233  0.00034806  0.0005599   0.000316399
 29   -230.4376664512  -0.000115915547 0.02326993  0.00138773  0.0005739   0.000285063
 30   -230.4380245971  -0.000358145996 0.00886218  0.00053193  0.0009349   0.000486977
 31   -230.4381235937  -0.000098996553 0.00074427  0.00005631  0.0006831   0.000417405
 32   -230.4381164439   0.000007149775 0.00181797  0.00011707  0.0008348   0.000403118
 33   -230.4381372921  -0.000020848197 0.00696958  0.00046768  0.0006624   0.000313127
 34   -230.4382045473  -0.000067255214 0.00133849  0.00008804  0.0003138   0.000180183
 35   -230.4382209011  -0.000016353768 0.00097253  0.00006128  0.0003141   0.000168416
 36   -230.4382297327  -0.000008831627 0.00212506  0.00011483  0.0003243   0.000160132
 37   -230.4382474434  -0.000017710673 0.00037981  0.00002038  0.0003178   0.000138963
 38   -230.4382496263  -0.000002182933 0.00204996  0.00011200  0.0003316   0.000140163
 39   -230.4382665083  -0.000016881994 0.00233145  0.00012986  0.0003139   0.000122244
               *** Restarting incremental Fock matrix formation ***
                             ****Resetting KDIIS****
 40   -230.4382851939  -0.000018685581 0.00005614  0.00000293  0.0003060   0.000119721
                          ***Energy convergence achieved***
 41   -230.4382856509  -0.000000456971 0.00014189  0.00000822  0.0003059   0.000118013
 42   -230.4382869229  -0.000001272023 0.00160518  0.00009214  0.0003041   0.000117147
 43   -230.4383008144  -0.000013891499 0.00492081  0.00027782  0.0002930   0.000112579
 44   -230.4383392392  -0.000038424787 0.00313286  0.00016813  0.0002400   0.000108008
 45   -230.4383606226  -0.000021383385 0.00544811  0.00028651  0.0002402   0.000103032
 46   -230.4383933566  -0.000032734014 0.01723041  0.00085898  0.0002078   0.000101831
 47   -230.4384642997  -0.000070943105 0.00036968  0.00001388  0.0003937   0.000174147
                          ***Energy convergence achieved***
 48   -230.4384644517  -0.000000152037 0.00260991  0.00012671  0.0003017   0.000129152
 49   -230.4384709199  -0.000006468177 0.01348730  0.00066867  0.0003462   0.000140490
 50   -230.4384242094   0.000046710481 0.01542453  0.00075117  0.0002416   0.000149276
 51   -230.4384770575  -0.000052848081 0.00288952  0.00014677  0.0001782   0.000086819
 52   -230.4384707616   0.000006295942 0.00606786  0.00028238  0.0001751   0.000068229
 53   -230.4384856060  -0.000014844412 0.00143685  0.00006697  0.0001351   0.000057506
 54   -230.4384826607   0.000002945263 0.00028298  0.00001742  0.0001472   0.000056154
                          ***Energy convergence achieved***
 55   -230.4384824221   0.000000238583 0.00033773  0.00001632  0.0001566   0.000061183
 56   -230.4384832409  -0.000000818779 0.00503934  0.00023746  0.0001485   0.000056659
 57   -230.4384912912  -0.000008050336 0.00243390  0.00012121  0.0001185   0.000058350
 58   -230.4384927114  -0.000001420173 0.00067702  0.00003610  0.0001098   0.000052422
                          ***Energy convergence achieved***
 59   -230.4384928077  -0.000000096251 0.00078159  0.00005058  0.0001063   0.000049296
               *** Restarting incremental Fock matrix formation ***
                             ****Resetting KDIIS****

            ***Energy convergence in two consecutive cycles with***
                    ***'reasonable' density convergence***
                       *** signaling convergence ***

                    *** KDIIS BlockDiag ( 0.002 sec) ***

               *****************************************************
               *                     SUCCESS                       *
               *           SCF CONVERGED AFTER  60 CYCLES          *
               *****************************************************

Setting up the final grid:

General Integration Accuracy     IntAcc      ...  4.670
Radial Grid Type                 RadialGrid  ... Gauss-Chebyshev
Angular Grid (max. acc.)         AngularGrid ... Lebedev-302
Angular grid pruning method      GridPruning ... 3 (G Style)
Weight generation scheme         WeightScheme... Becke
Basis function cutoff            BFCut       ...    1.0000e-10
Integration weight cutoff        WCut        ...    1.0000e-14
Grids for H and He will be reduced by one unit

# of grid points (after initial pruning)     ...  57636 (   0.1 sec)
# of grid points (after weights+screening)   ...  55946 (   0.1 sec)
nearest neighbour list constructed           ...    0.0 sec
Grid point re-assignment to atoms done       ...    0.0 sec
Grid point division into batches done        ...    0.3 sec
Reduced shell lists constructed in    1.1 sec

Total number of grid points                  ...    55946
Total number of batches                      ...      882
Average number of points per batch           ...       63
Average number of grid points per atom       ...     4662
Average number of shells per batch           ...    16.87 (35.15%)
Average number of basis functions per batch  ...    32.47 (33.83%)
Average number of large shells per batch     ...    11.76 (69.70%)
Average number of large basis fcns per batch ...    22.83 (70.30%)
Maximum spatial batch extension              ...  19.08, 21.10, 21.70 au
Average spatial batch extension              ...   3.21,  3.27,  3.50 au

Final grid set up in    1.3 sec
Final integration                            ... done (   1.1 sec)
Change in XC energy                          ...    -0.000058308
Integrated number of electrons               ...    42.000001297
Previous integrated no of electrons          ...    41.997340745

----------------
TOTAL SCF ENERGY
----------------

Total Energy       :         -230.43855080 Eh           -6270.55176 eV

Components:
Nuclear Repulsion  :           89.56103221 Eh            2437.07959 eV
Electronic Energy  :         -319.99958301 Eh           -8707.63134 eV
One Electron Energy:         -484.77377377 Eh          -13191.36502 eV
Two Electron Energy:          164.77419076 Eh            4483.73368 eV

Virial components:
Potential Energy   :         -459.76715588 Eh          -12510.90035 eV
Kinetic Energy     :          229.32860508 Eh            6240.34860 eV
Virial Ratio       :            2.00483998


DFT components:
N(Alpha)           :       21.000000648278 electrons
N(Beta)            :       21.000000648278 electrons
N(Total)           :       42.000001296557 electrons
E(XC)              :      -22.767809485252 Eh       

---------------
SCF CONVERGENCE
---------------

  Last Energy change         ...    3.1300e-07  Tolerance :   1.0000e-06
  Last MAX-Density change    ...    1.9666e-05  Tolerance :   1.0000e-05
  Last RMS-Density change    ...    1.1619e-06  Tolerance :   1.0000e-06
  Last DIIS Error            ...    9.6538e-05  Tolerance :   1.0000e-06

             **** THE GBW FILE WAS UPDATED (Scan_35.gbw) ****
             **** DENSITY FILE WAS UPDATED (Scan_35.scfp.tmp) ****
             **** ENERGY FILE WAS UPDATED (Scan_35.en.tmp) ****
----------------
ORBITAL ENERGIES
----------------

  NO   OCC          E(Eh)            E(eV) 
   0   2.0000     -10.398493      -282.9574 
   1   2.0000     -10.396663      -282.9076 
   2   2.0000     -10.396295      -282.8976 
   3   2.0000     -10.396213      -282.8953 
   4   2.0000     -10.396141      -282.8934 
   5   2.0000     -10.395725      -282.8821 
   6   2.0000      -0.743281       -20.2257 
   7   2.0000      -0.741751       -20.1841 
   8   2.0000      -0.740504       -20.1501 
   9   2.0000      -0.737065       -20.0566 
  10   2.0000      -0.735752       -20.0208 
  11   2.0000      -0.734180       -19.9781 
  12   2.0000      -0.420754       -11.4493 
  13   2.0000      -0.413511       -11.2522 
  14   2.0000      -0.412260       -11.2182 
  15   2.0000      -0.400089       -10.8870 
  16   2.0000      -0.398309       -10.8386 
  17   2.0000      -0.390877       -10.6363 
  18   2.0000      -0.247974        -6.7477 
  19   2.0000      -0.224933        -6.1207 
  20   2.0000      -0.223409        -6.0793 
  21   0.0000      -0.108342        -2.9481 
  22   0.0000      -0.106804        -2.9063 
  23   0.0000      -0.083272        -2.2660 
  24   0.0000      -0.037565        -1.0222 
  25   0.0000      -0.036866        -1.0032 
  26   0.0000      -0.035280        -0.9600 
  27   0.0000      -0.032109        -0.8737 
  28   0.0000      -0.030341        -0.8256 
  29   0.0000      -0.028797        -0.7836 
  30   0.0000       0.191435         5.2092 
  31   0.0000       0.210561         5.7297 
  32   0.0000       0.213585         5.8119 
  33   0.0000       0.254887         6.9358 
  34   0.0000       0.259962         7.0739 
  35   0.0000       0.287920         7.8347 
  36   0.0000       0.602835        16.4040 
  37   0.0000       0.610186        16.6040 
  38   0.0000       0.616157        16.7665 
  39   0.0000       0.621631        16.9154 
  40   0.0000       0.630593        17.1593 
  41   0.0000       0.634465        17.2647 
  42   0.0000       0.650411        17.6986 
  43   0.0000       0.651596        17.7308 
  44   0.0000       0.653553        17.7841 
  45   0.0000       0.658459        17.9176 
  46   0.0000       0.660039        17.9606 
  47   0.0000       0.667656        18.1678 
  48   0.0000       0.686804        18.6889 
  49   0.0000       0.691167        18.8076 
  50   0.0000       0.694472        18.8976 
  51   0.0000       0.708706        19.2849 
  52   0.0000       0.710768        19.3410 
  53   0.0000       0.726113        19.7585 
  54   0.0000       0.738024        20.0827 
  55   0.0000       0.748215        20.3600 
  56   0.0000       0.750933        20.4339 
  57   0.0000       0.764563        20.8048 
  58   0.0000       0.770698        20.9718 
  59   0.0000       0.785621        21.3778 
  60   0.0000       1.023752        27.8577 
  61   0.0000       1.034255        28.1435 
  62   0.0000       1.052705        28.6455 
  63   0.0000       1.077915        29.3316 
  64   0.0000       1.097145        29.8548 
  65   0.0000       1.113291        30.2942 
  66   0.0000       1.750912        47.6447 
  67   0.0000       1.751071        47.6491 
  68   0.0000       1.751571        47.6627 
  69   0.0000       1.752352        47.6839 
  70   0.0000       1.753585        47.7175 
  71   0.0000       1.754326        47.7376 
  72   0.0000       1.764620        48.0177 
  73   0.0000       1.765670        48.0463 
  74   0.0000       1.768448        48.1219 
  75   0.0000       1.768701        48.1288 
  76   0.0000       1.769288        48.1448 
  77   0.0000       1.770122        48.1675 
  78   0.0000       1.775222        48.3063 
  79   0.0000       1.775851        48.3234 
  80   0.0000       1.776823        48.3498 
  81   0.0000       1.777031        48.3555 
  82   0.0000       1.777675        48.3730 
  83   0.0000       1.778029        48.3826 
  84   0.0000       1.779711        48.4284 
  85   0.0000       1.779996        48.4361 
  86   0.0000       1.780340        48.4455 
  87   0.0000       1.780832        48.4589 
  88   0.0000       1.780838        48.4591 
  89   0.0000       1.781470        48.4763 
  90   0.0000       2.197717        59.8029 
  91   0.0000       2.197910        59.8082 
  92   0.0000       2.199806        59.8598 
  93   0.0000       2.204597        59.9901 
  94   0.0000       2.207789        60.0770 
  95   0.0000       2.213679        60.2373 

                    ********************************
                    * MULLIKEN POPULATION ANALYSIS *
                    ********************************

-----------------------
MULLIKEN ATOMIC CHARGES
-----------------------
   0 C :   -0.169864
   1 H :    0.179173
   2 C :   -0.171921
   3 H :    0.174023
   4 C :   -0.175695
   5 H :    0.170300
   6 C :   -0.179416
   7 H :    0.173299
   8 C :   -0.175317
   9 H :    0.176406
  10 C :   -0.178698
  11 H :    0.177710
Sum of atomic charges:   -0.0000000

--------------------------------
MULLIKEN REDUCED ORBITAL CHARGES
--------------------------------
  0 C s       :     3.921204  s :     3.921204
      pz      :     0.261080  p :     2.234342
      px      :     0.870554
      py      :     1.102708
      dz2     :     0.000846  d :     0.014318
      dxz     :     0.000409
      dyz     :     0.005639
      dx2y2   :     0.005904
      dxy     :     0.001519
  1 H s       :     0.820827  s :     0.820827
  2 C s       :     3.917814  s :     3.917814
      pz      :     1.117170  p :     2.239565
      px      :     0.780933
      py      :     0.341461
      dz2     :     0.001029  d :     0.014543
      dxz     :     0.008551
      dyz     :     0.001813
      dx2y2   :     0.001241
      dxy     :     0.001908
  3 H s       :     0.825977  s :     0.825977
  4 C s       :     3.919423  s :     3.919423
      pz      :     1.081160  p :     2.242073
      px      :     0.827957
      py      :     0.332956
      dz2     :     0.000427  d :     0.014198
      dxz     :     0.008160
      dyz     :     0.001375
      dx2y2   :     0.002069
      dxy     :     0.002167
  5 H s       :     0.829700  s :     0.829700
  6 C s       :     3.917653  s :     3.917653
      pz      :     0.220888  p :     2.247567
      px      :     0.974081
      py      :     1.052599
      dz2     :     0.001093  d :     0.014195
      dxz     :     0.000078
      dyz     :     0.005306
      dx2y2   :     0.007215
      dxy     :     0.000503
  7 H s       :     0.826701  s :     0.826701
  8 C s       :     3.918293  s :     3.918293
      pz      :     0.059350  p :     2.242869
      px      :     1.156005
      py      :     1.027514
      dz2     :     0.002607  d :     0.014155
      dxz     :     0.001069
      dyz     :     0.000763
      dx2y2   :     0.000827
      dxy     :     0.008889
  9 H s       :     0.823594  s :     0.823594
 10 C s       :     3.918697  s :     3.918697
      pz      :     0.072214  p :     2.245866
      px      :     1.106837
      py      :     1.066815
      dz2     :     0.002533  d :     0.014135
      dxz     :     0.001621
      dyz     :     0.000388
      dx2y2   :     0.003828
      dxy     :     0.005766
 11 H s       :     0.822290  s :     0.822290


                     *******************************
                     * LOEWDIN POPULATION ANALYSIS *
                     *******************************

----------------------
LOEWDIN ATOMIC CHARGES
----------------------
   0 C :   -0.108259
   1 H :    0.121371
   2 C :   -0.116807
   3 H :    0.118166
   4 C :   -0.124059
   5 H :    0.117751
   6 C :   -0.126966
   7 H :    0.118657
   8 C :   -0.119378
   9 H :    0.120604
  10 C :   -0.121738
  11 H :    0.120659

-------------------------------
LOEWDIN REDUCED ORBITAL CHARGES
-------------------------------
  0 C s       :     3.751759  s :     3.751759
      pz      :     0.278907  p :     2.337404
      px      :     0.875805
      py      :     1.182692
      dz2     :     0.001145  d :     0.019096
      dxz     :     0.000503
      dyz     :     0.007562
      dx2y2   :     0.007938
      dxy     :     0.001947
  1 H s       :     0.878629  s :     0.878629
  2 C s       :     3.748099  s :     3.748099
      pz      :     1.164802  p :     2.349068
      px      :     0.831492
      py      :     0.352774
      dz2     :     0.001216  d :     0.019640
      dxz     :     0.011639
      dyz     :     0.002505
      dx2y2   :     0.001684
      dxy     :     0.002597
  3 H s       :     0.881834  s :     0.881834
  4 C s       :     3.754242  s :     3.754242
      pz      :     1.117867  p :     2.350713
      px      :     0.887966
      py      :     0.344880
      dz2     :     0.000440  d :     0.019104
      dxz     :     0.011054
      dyz     :     0.001864
      dx2y2   :     0.002828
      dxy     :     0.002918
  5 H s       :     0.882249  s :     0.882249
  6 C s       :     3.748981  s :     3.748981
      pz      :     0.236137  p :     2.358857
      px      :     0.975053
      py      :     1.147667
      dz2     :     0.001471  d :     0.019128
      dxz     :     0.000082
      dyz     :     0.007205
      dx2y2   :     0.009829
      dxy     :     0.000541
  7 H s       :     0.881343  s :     0.881343
  8 C s       :     3.748763  s :     3.748763
      pz      :     0.063976  p :     2.351638
      px      :     1.217785
      py      :     1.069878
      dz2     :     0.003516  d :     0.018978
      dxz     :     0.001448
      dyz     :     0.001016
      dx2y2   :     0.000949
      dxy     :     0.012048
  9 H s       :     0.879396  s :     0.879396
 10 C s       :     3.748262  s :     3.748262
      pz      :     0.077331  p :     2.354544
      px      :     1.191004
      py      :     1.086210
      dz2     :     0.003411  d :     0.018932
      dxz     :     0.002185
      dyz     :     0.000520
      dx2y2   :     0.005090
      dxy     :     0.007726
 11 H s       :     0.879341  s :     0.879341


                      *****************************
                      * MAYER POPULATION ANALYSIS *
                      *****************************

  NA   - Mulliken gross atomic population
  ZA   - Total nuclear charge
  QA   - Mulliken gross atomic charge
  VA   - Mayer's total valence
  BVA  - Mayer's bonded valence
  FA   - Mayer's free valence

  ATOM       NA         ZA         QA         VA         BVA        FA
  0 C      6.1699     6.0000    -0.1699     1.9035     1.9035    -0.0000
  1 H      0.8208     1.0000     0.1792     0.9197     0.9197    -0.0000
  2 C      6.1719     6.0000    -0.1719     1.9142     1.9142     0.0000
  3 H      0.8260     1.0000     0.1740     0.9113     0.9113     0.0000
  4 C      6.1757     6.0000    -0.1757     1.9194     1.9194    -0.0000
  5 H      0.8297     1.0000     0.1703     0.9147     0.9147    -0.0000
  6 C      6.1794     6.0000    -0.1794     1.9216     1.9216     0.0000
  7 H      0.8267     1.0000     0.1733     0.9149     0.9149     0.0000
  8 C      6.1753     6.0000    -0.1753     1.9122     1.9122     0.0000
  9 H      0.8236     1.0000     0.1764     0.9193     0.9193     0.0000
 10 C      6.1787     6.0000    -0.1787     1.9117     1.9117    -0.0000
 11 H      0.8223     1.0000     0.1777     0.9196     0.9196    -0.0000

  Mayer bond orders larger than 0.1
B(  0-C ,  1-H ) :   0.8918 B(  0-C ,  2-C ) :   0.3261 B(  0-C ,  6-C ) :   0.1014 
B(  0-C , 10-C ) :   0.5664 B(  2-C ,  3-H ) :   0.8971 B(  2-C ,  4-C ) :   0.5759 
B(  4-C ,  5-H ) :   0.8993 B(  4-C ,  6-C ) :   0.3092 B(  4-C , 10-C ) :   0.1117 
B(  6-C ,  7-H ) :   0.8953 B(  6-C ,  8-C ) :   0.5837 B(  8-C ,  9-H ) :   0.8914 
B(  8-C , 10-C ) :   0.3107 B( 10-C , 11-H ) :   0.8897 

-------
TIMINGS
-------

Total SCF time: 0 days 0 hours 2 min 26 sec 

Total time                  ....     146.345 sec
Sum of individual times     ....     142.957 sec  ( 97.7%)

Fock matrix formation       ....     140.043 sec  ( 95.7%)
  XC integration            ....      25.443 sec  ( 18.2% of F)
    Basis function eval.    ....       8.875 sec  ( 34.9% of XC)
    Density eval.           ....       1.559 sec  (  6.1% of XC)
    XC-Functional eval.     ....       6.830 sec  ( 26.8% of XC)
    XC-Potential eval.      ....       0.685 sec  (  2.7% of XC)
Diagonalization             ....       0.149 sec  (  0.1%)
Density matrix formation    ....       0.008 sec  (  0.0%)
Population analysis         ....       0.054 sec  (  0.0%)
Initial guess               ....       0.680 sec  (  0.5%)
Orbital Transformation      ....       0.000 sec  (  0.0%)
Orbital Orthonormalization  ....       0.000 sec  (  0.0%)
DIIS solution               ....       0.000 sec  (  0.0%)
Grid generation             ....       2.023 sec  (  1.4%)


-------------------------------------------------------------------------------
                          DFT DISPERSION CORRECTION                            
                                                                               
                              DFTD3 V3.1  Rev 1                                
                              USING zero damping                               
-------------------------------------------------------------------------------
The omegaB97X-D3 functional is recognized. Fit by Chai et al.
Active option DFTDOPT                   ...         3   

molecular C6(AA) [au] = 2491.616508 


            DFT-D V3
 parameters
 s6 scaling factor         :     1.0000 
 rs6 scaling factor        :     1.2810 
 s8 scaling factor         :     1.0000 
 rs8 scaling factor        :     1.0940 
 Damping factor alpha6     :    14.0000 
 Damping factor alpha8     :    16.0000 
 ad hoc parameters k1-k3   :    16.0000     1.3333    -4.0000 

 Edisp/kcal,au: -1.401335642865  -0.002233170257 
 E6   /kcal   :  -0.598667844 
 E8   /kcal   :  -0.802667799 
 % E8         :  57.278768525 

-------------------------   ----------------
Dispersion correction           -0.002233170
-------------------------   ----------------


-------------------------   --------------------
FINAL SINGLE POINT ENERGY      -230.440783973026
-------------------------   --------------------


                            ***************************************
                            *     ORCA property calculations      *
                            ***************************************

                                    ---------------------
                                    Active property flags
                                    ---------------------
   (+) Dipole Moment


------------------------------------------------------------------------------
                       ORCA ELECTRIC PROPERTIES CALCULATION
------------------------------------------------------------------------------

Dipole Moment Calculation                       ... on
Quadrupole Moment Calculation                   ... off
Polarizability Calculation                      ... off
GBWName                                         ... Scan_35.gbw
Electron density file                           ... Scan_35.scfp.tmp

-------------
DIPOLE MOMENT
-------------
                                X             Y             Z
Electronic contribution:      0.25771      -0.10474      -0.01450
Nuclear contribution   :     -0.36917       0.20985       0.05005
                        -----------------------------------------
Total Dipole Moment    :     -0.11146       0.10511       0.03555
                        -----------------------------------------
Magnitude (a.u.)       :      0.15727
Magnitude (Debye)      :      0.39976


Timings for individual modules:

Sum of individual times         ...      147.832 sec (=   2.464 min)
GTO integral calculation        ...        1.376 sec (=   0.023 min)   0.9 %
SCF iterations                  ...      146.456 sec (=   2.441 min)  99.1 %
                             ****ORCA TERMINATED NORMALLY****
TOTAL RUN TIME: 0 days 0 hours 2 minutes 29 seconds 459 msec
