
                                 *****************
                                 * O   R   C   A *
                                 *****************

           --- An Ab Initio, DFT and Semiempirical electronic structure package ---

                  #######################################################
                  #                        -***-                        #
                  #  Department of molecular theory and spectroscopy    #
                  #              Directorship: Frank Neese              #
                  # Max Planck Institute for Chemical Energy Conversion #
                  #                  D-45470 Muelheim/Ruhr              #
                  #                       Germany                       #
                  #                                                     #
                  #                  All rights reserved                #
                  #                        -***-                        #
                  #######################################################


                         Program Version 4.0.0.2 - RELEASE -


 With contributions from (in alphabetic order):
   Daniel Aravena         : Magnetic Properties
   Michael Atanasov       : Ab Initio Ligand Field Theory
   Ute Becker             : Parallelization
   Martin Brehm           : Molecular dynamics
   Dmytro Bykov           : SCF Hessian
   Vijay G. Chilkuri      : MRCI spin determinant printing
   Dipayan Datta          : RHF DLPNO-CCSD density
   Achintya Kumar Dutta   : EOM-CC, STEOM-CC
   Dmitry Ganyushin       : Spin-Orbit,Spin-Spin,Magnetic field MRCI
   Yang Guo               : DLPNO-NEVPT2, CIM, IAO-localization
   Andreas Hansen         : Spin unrestricted coupled pair/coupled cluster methods
   Lee Huntington         : MR-EOM, pCC
   Robert Izsak           : Overlap fitted RIJCOSX, COSX-SCS-MP3, EOM
   Christian Kollmar      : KDIIS, OOCD, Brueckner-CCSD(T), CCSD density
   Simone Kossmann        : Meta GGA functionals, TD-DFT gradient, OOMP2, MP2 Hessian
   Martin Krupicka        : AUTO-CI
   Dagmar Lenk            : GEPOL surface
   Dimitrios Liakos       : Extrapolation schemes; parallel MDCI
   Dimitrios Manganas     : ROCIS; embedding schemes
   Dimitrios Pantazis     : SARC Basis sets
   Taras Petrenko         : DFT Hessian,TD-DFT gradient, ASA, ECA, R-Raman, ABS, FL, XAS/XES, NRVS
   Peter Pinski           : DLPNO-MP2
   Christoph Reimann      : Effective Core Potentials
   Marius Retegan         : Local ZFS, SOC
   Christoph Riplinger    : Optimizer, TS searches, QM/MM, DLPNO-CCSD(T), (RO)-DLPNO pert. Triples
   Tobias Risthaus        : Range-separated hybrids, TD-DFT gradient, RPA, STAB
   Michael Roemelt        : Restricted open shell CIS
   Masaaki Saitow         : Open-shell DLPNO
   Barbara Sandhoefer     : DKH picture change effects
   Kantharuban Sivalingam : CASSCF convergence, NEVPT2, FIC-MRCI
   Georgi Stoychev        : AutoAux
   Boris Wezisla          : Elementary symmetry handling
   Frank Wennmohs         : Technical directorship


 We gratefully acknowledge several colleagues who have allowed us to
 interface, adapt or use parts of their codes:
   Stefan Grimme, W. Hujo, H. Kruse,             : VdW corrections, initial TS optimization,
                  C. Bannwarth                     DFT functionals, gCP, sTDA/sTD-DF
   Ed Valeev                                     : LibInt (2-el integral package), F12 methods
   Garnet Chan, S. Sharma, J. Yang, R. Olivares  : DMRG
   Ulf Ekstrom                                   : XCFun DFT Library
   Mihaly Kallay                                 : mrcc  (arbitrary order and MRCC methods)
   Jiri Pittner, Ondrej Demel                    : Mk-CCSD
   Frank Weinhold                                : gennbo (NPA and NBO analysis)
   Christopher J. Cramer and Donald G. Truhlar   : smd solvation model


 Your calculation uses the libint2 library for the computation of 2-el integrals
 For citations please refer to: http://libint.valeyev.net

 This ORCA versions uses:
   CBLAS   interface :  Fast vector & matrix operations
   LAPACKE interface :  Fast linear algebra routines
   SCALAPACK package :  Parallel linear algebra routines


Your calculation utilizes the atom-pairwise dispersion correction
with the zero-damping scheme (D30)
Cite in your paper:
S.Grimme, J.Antony, S.Ehrlich and H.Krieg, J.Chem.Phys., 132, (2010), 154104 
   

XCFun DFT library Copyright 2009-2010 Ulf Ekstrom and contributors.
See http://admol.org/xcfun for more information. This is free soft-
ware; see the source code for copying conditions. There is ABSOLUTELY
NO WARRANTY; not even for MERCHANTABILITY or FITNESS FOR A PARTICULAR
PURPOSE. For details see the documentation. Scientific users of this 
library should cite U. Ekstrom, L. Visscher, R. Bast, A. J. Thorvald-
sen and K. Ruud; J.Chem.Theor.Comp. 2010, DOI: 10.1021/ct100117s
XCFun Version 0.99 
Your calculation utilizes the basis: 6-31G(d)
   H-He, Li-Ne : W. J. Hehre, R. Ditchfield and J.A. Pople, J. Chem. Phys. 56, 2257 (1972).
                 Note: He and Ne are unpublished basis sets taken from the Gaussian program.
                 Note: Li and B from J. D. Dill and J. A. Pople, J. Chem. Phys. 62, 2921 (1975).
   Na - Ar     : M. M. Francl, W. J. Pietro, W. J. Hehre, J. S. Binkley, M. S. Gordon, 
                 D. J. DeFrees and J. A. Pople, J. Chem. Phys. 77, 3654 (1982).
   K - Zn      : V. A. Rassolov, J. A. Pople, M. A. Ratner, and T. L. Windus, J. Chem. Phys. 109, 1223 (1998).

================================================================================
                                        WARNINGS
                       Please study these warnings very carefully!
================================================================================

Warning: TCutStore was < 0. Adjusted to Thresh (uncritical)

INFO   : the flag for use of LIBINT has been found!

================================================================================
                                       INPUT FILE
================================================================================
NAME = initial36.inp
|  1> ! WB97X-D3 6-31G(d) VerySlowConv
|  2> ! KDIIS NOSOSCF
|  3> %base "Scan_36"
|  4> 
|  5> %scf
|  6> maxiter 999
|  7> end
|  8> 
|  9> * xyz 0 1
| 10> C          4.240196003172   -2.486477309727    0.128459008309
| 11> H          4.111571674914   -3.591397413787    0.102347359480
| 12> C          1.955065244030    0.886830243814   -0.052467407571
| 13> H          2.871298604655    0.257670190917    0.001165879355
| 14> C         -2.115677604678    0.636715642820   -0.069891862672
| 15> H         -1.091527294957    1.070904751806   -0.087203364030
| 16> C         -3.966067264807   -2.992732276602    0.122798548319
| 17> H         -3.877378995695   -1.884325574495    0.085358983868
| 18> C         -1.701984863985   -6.381193796302   -0.030037886598
| 19> H         -2.604088010395   -5.733410757328    0.029500413519
| 20> C          2.366256120412   -6.101689936606   -0.099157191037
| 21> H          1.370946387342   -6.597003764497   -0.130872480871
| 22> **                         ****END OF INPUT****
================================================================================

                       ****************************
                       * Single Point Calculation *
                       ****************************

---------------------------------
CARTESIAN COORDINATES (ANGSTROEM)
---------------------------------
  C      4.240196   -2.486477    0.128459
  H      4.111572   -3.591397    0.102347
  C      1.955065    0.886830   -0.052467
  H      2.871299    0.257670    0.001166
  C     -2.115678    0.636716   -0.069892
  H     -1.091527    1.070905   -0.087203
  C     -3.966067   -2.992732    0.122799
  H     -3.877379   -1.884326    0.085359
  C     -1.701985   -6.381194   -0.030038
  H     -2.604088   -5.733411    0.029500
  C      2.366256   -6.101690   -0.099157
  H      1.370946   -6.597004   -0.130872

----------------------------
CARTESIAN COORDINATES (A.U.)
----------------------------
  NO LB      ZA    FRAG     MASS         X           Y           Z
   0 C     6.0000    0    12.011    8.012809   -4.698761    0.242752
   1 H     1.0000    0     1.008    7.769744   -6.786758    0.193408
   2 C     6.0000    0    12.011    3.694538    1.675866   -0.099149
   3 H     1.0000    0     1.008    5.425968    0.486926    0.002203
   4 C     6.0000    0    12.011   -3.998051    1.203218   -0.132076
   5 H     1.0000    0     1.008   -2.062688    2.023717   -0.164790
   6 C     6.0000    0    12.011   -7.494781   -5.655444    0.232056
   7 H     1.0000    0     1.008   -7.327184   -3.560859    0.161305
   8 C     6.0000    0    12.011   -3.216285  -12.058709   -0.056763
   9 H     1.0000    0     1.008   -4.921013  -10.834576    0.055748
  10 C     6.0000    0    12.011    4.471576  -11.530523   -0.187380
  11 H     1.0000    0     1.008    2.590713  -12.466530   -0.247313

--------------------------------
INTERNAL COORDINATES (ANGSTROEM)
--------------------------------
 C      0   0   0     0.000000000000     0.00000000     0.00000000
 H      1   0   0     1.112687949238     0.00000000     0.00000000
 C      1   2   0     4.078450784933   139.07093028     0.00000000
 H      3   1   2     1.112745466290    21.38694136   183.91082960
 C      3   1   2     4.078456603370   120.57732644     6.21365860
 H      5   3   1     1.112521337927    19.49111880   180.55682920
 C      5   3   1     4.078475657473   120.47819751     0.47811472
 H      7   5   3     1.112579321819    22.43374636   176.61426551
 C      7   5   3     4.078124515514   119.06204621   354.15186916
 H      9   7   5     1.112186028291    20.56763524   181.28563077
 C      2   1   3     3.064033129518   151.75682915     0.02928320
 H     11   2   1     1.112197425124   151.22152228   352.33792200

---------------------------
INTERNAL COORDINATES (A.U.)
---------------------------
 C      0   0   0     0.000000000000     0.00000000     0.00000000
 H      1   0   0     2.102675496575     0.00000000     0.00000000
 C      1   2   0     7.707155034199   139.07093028     0.00000000
 H      3   1   2     2.102784188052    21.38694136   183.91082960
 C      3   1   2     7.707166029452   120.57732644     6.21365860
 H      5   3   1     2.102360646826    19.49111880   180.55682920
 C      5   3   1     7.707202036488   120.47819751     0.47811472
 H      7   5   3     2.102470220502    22.43374636   176.61426551
 C      7   5   3     7.706538474352   119.06204621   354.15186916
 H      9   7   5     2.101727003444    20.56763524   181.28563077
 C      2   1   3     5.790183480052   151.75682915     0.02928320
 H     11   2   1     2.101748540337   151.22152228   352.33792200

---------------------
BASIS SET INFORMATION
---------------------
There are 2 groups of distinct atoms

 Group   1 Type C   : 10s4p1d contracted to 3s2p1d pattern {631/31/1}
 Group   2 Type H   : 4s contracted to 2s pattern {31}

Atom   0C    basis set group =>   1
Atom   1H    basis set group =>   2
Atom   2C    basis set group =>   1
Atom   3H    basis set group =>   2
Atom   4C    basis set group =>   1
Atom   5H    basis set group =>   2
Atom   6C    basis set group =>   1
Atom   7H    basis set group =>   2
Atom   8C    basis set group =>   1
Atom   9H    basis set group =>   2
Atom  10C    basis set group =>   1
Atom  11H    basis set group =>   2
------------------------------------------------------------------------------
                           ORCA GTO INTEGRAL CALCULATION
------------------------------------------------------------------------------

                         BASIS SET STATISTICS AND STARTUP INFO

 # of primitive gaussian shells          ...  114
 # of primitive gaussian functions       ...  186
 # of contracted shells                  ...   48
 # of contracted basis functions         ...   96
 Highest angular momentum                ...    2
 Maximum contraction depth               ...    6
 Integral package used                   ... LIBINT
 Integral threshhold            Thresh   ...  1.000e-10
 Primitive cut-off              TCut     ...  1.000e-11


------------------------------ INTEGRAL EVALUATION ----------------------------


 * One electron integrals 
 Pre-screening matrix                    ... done
 Shell pair data                         ... done (   0.000 sec)

-------------------------------------------------------------------------------
                                 ORCA SCF
-------------------------------------------------------------------------------

------------
SCF SETTINGS
------------
Hamiltonian:
 Density Functional     Method          .... DFT(GTOs)
 Exchange Functional    Exchange        .... WB97X-D3
 Correlation Functional Correlation     .... WB97X-D3
 Gradients option       PostSCFGGA      .... off
 Hybrid DFT is turned on
   Fraction HF Exchange ScalHFX         ....  0.195728
   Scaling of DF-GGA-X  ScalDFX         ....  0.000000
   Scaling of DF-GGA-C  ScalDFC         ....  1.000000
   Scaling of DF-LDA-C  ScalLDAC        ....  1.000000
   Perturbative correction              ....  0.000000
 Long-range corrected/Screened/Range-Separated Hybrid DFT is turned on
   Amount of maximum screened exact exchange              ....  0.804272
   Range separation parameter mu (erf(mu*r12)/r12)        ....  0.250000


General Settings:
 Integral files         IntName         .... Scan_36
 Hartree-Fock type      HFTyp           .... RHF
 Total Charge           Charge          ....    0
 Multiplicity           Mult            ....    1
 Number of Electrons    NEL             ....   42
 Basis Dimension        Dim             ....   96
 Nuclear Repulsion      ENuc            ....     87.6673060034 Eh

Convergence Acceleration:
 DIIS                   CNVDIIS         .... on
   Start iteration      DIISMaxIt       ....     0
   Startup error        DIISStart       ....  0.200000
   # of expansion vecs  DIISMaxEq       ....     5
   Bias factor          DIISBfac        ....   1.050
   Max. coefficient     DIISMaxC        ....  10.000
 Newton-Raphson         CNVNR           .... off
 SOSCF                  CNVSOSCF        .... off
 Level Shifting         CNVShift        .... off
 Zerner damping         CNVZerner       .... off
 Static damping         CNVDamp         .... off
 Fernandez-Rico         CNVRico         .... off

SCF Procedure:
 Maximum # iterations   MaxIter         ....   999
 SCF integral mode      SCFMode         .... Direct
   Integral package                     .... LIBINT
 Reset frequeny         DirectResetFreq ....    20
 Integral Threshold     Thresh          ....  1.000e-10 Eh
 Primitive CutOff       TCut            ....  1.000e-11 Eh

Convergence Tolerance:
 Convergence Check Mode ConvCheckMode   .... All-Criteria
 Convergence forced     ConvForced      .... 0
 Energy Change          TolE            ....  1.000e-06 Eh
 Max Density Change     TolMaxP         ....  1.000e-05
 RMS Density Change     TolRMSP         ....  1.000e-06
 DIIS Error             TolErr          ....  1.000e-06


Diagonalization of the overlap matrix:
Smallest eigenvalue                        ... 3.328e-02
Time for diagonalization                   ...    0.002 sec
Threshold for overlap eigenvalues          ... 1.000e-08
Number of eigenvalues below threshold      ... 0
Time for construction of square roots      ...    0.005 sec
Total time needed                          ...    0.008 sec

-------------------
DFT GRID GENERATION
-------------------

General Integration Accuracy     IntAcc      ...  4.340
Radial Grid Type                 RadialGrid  ... Gauss-Chebyshev
Angular Grid (max. acc.)         AngularGrid ... Lebedev-110
Angular grid pruning method      GridPruning ... 3 (G Style)
Weight generation scheme         WeightScheme... Becke
Basis function cutoff            BFCut       ...    1.0000e-10
Integration weight cutoff        WCut        ...    1.0000e-14
Grids for H and He will be reduced by one unit

# of grid points (after initial pruning)     ...  14700 (   0.0 sec)
# of grid points (after weights+screening)   ...  14350 (   0.0 sec)
nearest neighbour list constructed           ...    0.0 sec
Grid point re-assignment to atoms done       ...    0.0 sec
Grid point division into batches done        ...    0.0 sec
Reduced shell lists constructed in    0.1 sec

Total number of grid points                  ...    14350
Total number of batches                      ...      232
Average number of points per batch           ...       61
Average number of grid points per atom       ...     1196
Average number of shells per batch           ...    19.21 (40.03%)
Average number of basis functions per batch  ...    37.16 (38.71%)
Average number of large shells per batch     ...    13.14 (68.39%)
Average number of large basis fcns per batch ...    25.77 (69.34%)
Maximum spatial batch extension              ...  20.22, 19.96, 31.36 au
Average spatial batch extension              ...   4.63,  4.66,  6.42 au

Time for grid setup =    0.477 sec

------------------------------
INITIAL GUESS: MODEL POTENTIAL
------------------------------
Loading Hartree-Fock densities                     ... done
Calculating cut-offs                               ... done
Setting up the integral package                    ... done
Initializing the effective Hamiltonian             ... done
Starting the Coulomb interaction                   ... done (   0.0 sec)
Reading the grid                                   ... done
Mapping shells                                     ... done
Starting the XC term evaluation                    ... done (   0.1 sec)
  promolecular density results
     # of electrons  =     41.993620048
     EX              =    -31.545027771
     EC              =     -1.141935164
     EX+EC           =    -32.686962935
Transforming the Hamiltonian                       ... done (   0.0 sec)
Diagonalizing the Hamiltonian                      ... done (   0.0 sec)
Back transforming the eigenvectors                 ... done (   0.0 sec)
Now organizing SCF variables                       ... done
                      ------------------
                      INITIAL GUESS DONE (   0.7 sec)
                      ------------------
--------------
SCF ITERATIONS
--------------
ITER       Energy         Delta-E        Max-DP      RMS-DP      [F,P]   Gradient Norm
               ***  Starting incremental Fock matrix formation  ***
                             ****Resetting KDIIS****
                             ****Turning on KDIIS(Cayley)****
  0   -230.4143984634   0.000000000000 0.01057583  0.00032656  0.0284220   0.026432165
  1   -230.4185001788  -0.004101715438 0.00895536  0.00044894  0.0245918   0.023416895
  2   -230.4232777614  -0.004777582597 0.01781767  0.00073027  0.0201390   0.018944174
  3   -230.4292275674  -0.005949805974 0.02682281  0.00119492  0.0126259   0.011495281
  4   -230.4329642838  -0.003736716410 0.00272447  0.00012823  0.0011999   0.000787966
  5   -230.4330281371  -0.000063853306 0.00247268  0.00013287  0.0010673   0.000437515
  6   -230.4330941101  -0.000065973025 0.00088901  0.00004299  0.0011687   0.000388822
  7   -230.4331163196  -0.000022209510 0.00147252  0.00007160  0.0012132   0.000392359
  8   -230.4330796011   0.000036718472 0.00562120  0.00028759  0.0011908   0.000398285
  9   -230.4329491754   0.000130425732 0.00573818  0.00027872  0.0010545   0.000455751
 10   -230.4328484269   0.000100748526 0.01001156  0.00051561  0.0007203   0.000416845
 11   -230.4327342169   0.000114209997 0.00545556  0.00027608  0.0003523   0.000305501
 12   -230.4327147672   0.000019449643 0.00222810  0.00010488  0.0002123   0.000134175
                          ***Energy convergence achieved***
 13   -230.4327149539  -0.000000186618 0.00078545  0.00003808  0.0001748   0.000100699
 14   -230.4327166960  -0.000001742126 0.00097532  0.00004488  0.0001691   0.000081191
 15   -230.4327186888  -0.000001992782 0.00030384  0.00001674  0.0001607   0.000072916
                          ***Energy convergence achieved***
 16   -230.4327191657  -0.000000476903 0.00021310  0.00001134  0.0001077   0.000058502
 17   -230.4327196899  -0.000000524222 0.00019772  0.00000953  0.0000642   0.000040378
 18   -230.4327201164  -0.000000426527 0.00018330  0.00000975  0.0000671   0.000033686
 19   -230.4327205559  -0.000000439516 0.00013279  0.00000731  0.0000684   0.000033493
               *** Restarting incremental Fock matrix formation ***
                             ****Resetting KDIIS****
                           ***RMSP convergence achieved***

            ***Energy convergence in two consecutive cycles with***
                    ***'reasonable' density convergence***
                       *** signaling convergence ***

                    *** KDIIS BlockDiag ( 0.001 sec) ***

               *****************************************************
               *                     SUCCESS                       *
               *           SCF CONVERGED AFTER  20 CYCLES          *
               *****************************************************

Setting up the final grid:

General Integration Accuracy     IntAcc      ...  4.670
Radial Grid Type                 RadialGrid  ... Gauss-Chebyshev
Angular Grid (max. acc.)         AngularGrid ... Lebedev-302
Angular grid pruning method      GridPruning ... 3 (G Style)
Weight generation scheme         WeightScheme... Becke
Basis function cutoff            BFCut       ...    1.0000e-10
Integration weight cutoff        WCut        ...    1.0000e-14
Grids for H and He will be reduced by one unit

# of grid points (after initial pruning)     ...  57636 (   0.0 sec)
# of grid points (after weights+screening)   ...  55943 (   0.1 sec)
nearest neighbour list constructed           ...    0.0 sec
Grid point re-assignment to atoms done       ...    0.0 sec
Grid point division into batches done        ...    0.2 sec
Reduced shell lists constructed in    0.6 sec

Total number of grid points                  ...    55943
Total number of batches                      ...      881
Average number of points per batch           ...       63
Average number of grid points per atom       ...     4662
Average number of shells per batch           ...    16.23 (33.82%)
Average number of basis functions per batch  ...    31.33 (32.64%)
Average number of large shells per batch     ...    11.39 (70.17%)
Average number of large basis fcns per batch ...    22.22 (70.91%)
Maximum spatial batch extension              ...  18.89, 18.70, 22.85 au
Average spatial batch extension              ...   3.14,  3.17,  3.65 au

Final grid set up in    0.7 sec
Final integration                            ... done (   0.5 sec)
Change in XC energy                          ...     0.000657538
Integrated number of electrons               ...    41.999994786
Previous integrated no of electrons          ...    41.998575715

----------------
TOTAL SCF ENERGY
----------------

Total Energy       :         -230.43206335 Eh           -6270.37522 eV

Components:
Nuclear Repulsion  :           87.66730600 Eh            2385.54868 eV
Electronic Energy  :         -318.09936935 Eh           -8655.92390 eV
One Electron Energy:         -481.08289982 Eh          -13090.93123 eV
Two Electron Energy:          162.98353047 Eh            4435.00734 eV

Virial components:
Potential Energy   :         -459.77696936 Eh          -12511.16739 eV
Kinetic Energy     :          229.34490601 Eh            6240.79217 eV
Virial Ratio       :            2.00474027


DFT components:
N(Alpha)           :       20.999997393012 electrons
N(Beta)            :       20.999997393012 electrons
N(Total)           :       41.999994786023 electrons
E(XC)              :      -22.772059313935 Eh       

---------------
SCF CONVERGENCE
---------------

  Last Energy change         ...   -3.3284e-07  Tolerance :   1.0000e-06
  Last MAX-Density change    ...    1.4358e-05  Tolerance :   1.0000e-05
  Last RMS-Density change    ...    8.0054e-07  Tolerance :   1.0000e-06
  Last DIIS Error            ...    7.5694e-05  Tolerance :   1.0000e-06

             **** THE GBW FILE WAS UPDATED (Scan_36.gbw) ****
             **** DENSITY FILE WAS UPDATED (Scan_36.scfp.tmp) ****
             **** ENERGY FILE WAS UPDATED (Scan_36.en.tmp) ****
----------------
ORBITAL ENERGIES
----------------

  NO   OCC          E(Eh)            E(eV) 
   0   2.0000     -10.393889      -282.8321 
   1   2.0000     -10.393819      -282.8302 
   2   2.0000     -10.393796      -282.8296 
   3   2.0000     -10.393698      -282.8269 
   4   2.0000     -10.393518      -282.8220 
   5   2.0000     -10.393472      -282.8207 
   6   2.0000      -0.740422       -20.1479 
   7   2.0000      -0.738714       -20.1014 
   8   2.0000      -0.738535       -20.0966 
   9   2.0000      -0.734725       -19.9929 
  10   2.0000      -0.734603       -19.9896 
  11   2.0000      -0.732854       -19.9420 
  12   2.0000      -0.418323       -11.3832 
  13   2.0000      -0.411542       -11.1986 
  14   2.0000      -0.411360       -11.1937 
  15   2.0000      -0.396835       -10.7984 
  16   2.0000      -0.396689       -10.7945 
  17   2.0000      -0.388656       -10.5759 
  18   2.0000      -0.243781        -6.6336 
  19   2.0000      -0.219873        -5.9831 
  20   2.0000      -0.219785        -5.9807 
  21   0.0000      -0.106858        -2.9078 
  22   0.0000      -0.106752        -2.9049 
  23   0.0000      -0.083552        -2.2736 
  24   0.0000      -0.033635        -0.9153 
  25   0.0000      -0.032394        -0.8815 
  26   0.0000      -0.032257        -0.8778 
  27   0.0000      -0.029789        -0.8106 
  28   0.0000      -0.029653        -0.8069 
  29   0.0000      -0.028429        -0.7736 
  30   0.0000       0.189097         5.1456 
  31   0.0000       0.211170         5.7462 
  32   0.0000       0.211511         5.7555 
  33   0.0000       0.263791         7.1781 
  34   0.0000       0.264420         7.1952 
  35   0.0000       0.296597         8.0708 
  36   0.0000       0.616312        16.7707 
  37   0.0000       0.626121        17.0376 
  38   0.0000       0.626502        17.0480 
  39   0.0000       0.640231        17.4216 
  40   0.0000       0.643686        17.5156 
  41   0.0000       0.643972        17.5234 
  42   0.0000       0.647878        17.6297 
  43   0.0000       0.648038        17.6340 
  44   0.0000       0.651336        17.7238 
  45   0.0000       0.663186        18.0462 
  46   0.0000       0.663242        18.0477 
  47   0.0000       0.671058        18.2604 
  48   0.0000       0.690181        18.7808 
  49   0.0000       0.695495        18.9254 
  50   0.0000       0.696161        18.9435 
  51   0.0000       0.705924        19.2092 
  52   0.0000       0.706979        19.2379 
  53   0.0000       0.711999        19.3745 
  54   0.0000       0.744619        20.2621 
  55   0.0000       0.747190        20.3321 
  56   0.0000       0.747742        20.3471 
  57   0.0000       0.757446        20.6111 
  58   0.0000       0.758164        20.6307 
  59   0.0000       0.765579        20.8325 
  60   0.0000       1.058132        28.7932 
  61   0.0000       1.071069        29.1453 
  62   0.0000       1.072601        29.1870 
  63   0.0000       1.107386        30.1335 
  64   0.0000       1.109381        30.1878 
  65   0.0000       1.133804        30.8524 
  66   0.0000       1.752759        47.6950 
  67   0.0000       1.752977        47.7009 
  68   0.0000       1.753008        47.7018 
  69   0.0000       1.753073        47.7035 
  70   0.0000       1.753246        47.7083 
  71   0.0000       1.753338        47.7107 
  72   0.0000       1.769552        48.1520 
  73   0.0000       1.770088        48.1666 
  74   0.0000       1.770260        48.1712 
  75   0.0000       1.770503        48.1778 
  76   0.0000       1.770751        48.1846 
  77   0.0000       1.770843        48.1871 
  78   0.0000       1.778022        48.3825 
  79   0.0000       1.778181        48.3868 
  80   0.0000       1.778405        48.3929 
  81   0.0000       1.778731        48.4017 
  82   0.0000       1.778929        48.4071 
  83   0.0000       1.779042        48.4102 
  84   0.0000       1.782281        48.4983 
  85   0.0000       1.782474        48.5036 
  86   0.0000       1.782910        48.5155 
  87   0.0000       1.783327        48.5268 
  88   0.0000       1.783651        48.5356 
  89   0.0000       1.783885        48.5420 
  90   0.0000       2.204369        59.9839 
  91   0.0000       2.205798        60.0228 
  92   0.0000       2.206073        60.0303 
  93   0.0000       2.209500        60.1236 
  94   0.0000       2.209815        60.1321 
  95   0.0000       2.212144        60.1955 

                    ********************************
                    * MULLIKEN POPULATION ANALYSIS *
                    ********************************

-----------------------
MULLIKEN ATOMIC CHARGES
-----------------------
   0 C :   -0.177208
   1 H :    0.178649
   2 C :   -0.178705
   3 H :    0.177919
   4 C :   -0.179077
   5 H :    0.178921
   6 C :   -0.177714
   7 H :    0.177698
   8 C :   -0.177985
   9 H :    0.178702
  10 C :   -0.179805
  11 H :    0.178606
Sum of atomic charges:   -0.0000000

--------------------------------
MULLIKEN REDUCED ORBITAL CHARGES
--------------------------------
  0 C s       :     3.917309  s :     3.917309
      pz      :     0.007574  p :     2.245668
      px      :     0.986035
      py      :     1.252059
      dz2     :     0.003516  d :     0.014231
      dxz     :     0.000002
      dyz     :     0.000026
      dx2y2   :     0.009619
      dxy     :     0.001068
  1 H s       :     0.821351  s :     0.821351
  2 C s       :     3.917873  s :     3.917873
      pz      :     0.003068  p :     2.246690
      px      :     1.194204
      py      :     1.049418
      dz2     :     0.003448  d :     0.014141
      dxz     :     0.000064
      dyz     :     0.000034
      dx2y2   :     0.001705
      dxy     :     0.008890
  3 H s       :     0.822081  s :     0.822081
  4 C s       :     3.918254  s :     3.918254
      pz      :     0.002679  p :     2.246598
      px      :     1.188564
      py      :     1.055355
      dz2     :     0.003511  d :     0.014225
      dxz     :     0.000009
      dyz     :     0.000002
      dx2y2   :     0.005263
      dxy     :     0.005441
  5 H s       :     0.821079  s :     0.821079
  6 C s       :     3.917064  s :     3.917064
      pz      :     0.005026  p :     2.246432
      px      :     0.991692
      py      :     1.249713
      dz2     :     0.003503  d :     0.014219
      dxz     :     0.000002
      dyz     :     0.000048
      dx2y2   :     0.009882
      dxy     :     0.000783
  7 H s       :     0.822302  s :     0.822302
  8 C s       :     3.917969  s :     3.917969
      pz      :     0.003697  p :     2.245826
      px      :     1.191722
      py      :     1.050407
      dz2     :     0.003446  d :     0.014189
      dxz     :     0.000077
      dyz     :     0.000044
      dx2y2   :     0.001474
      dxy     :     0.009149
  9 H s       :     0.821298  s :     0.821298
 10 C s       :     3.917857  s :     3.917857
      pz      :     0.005262  p :     2.247746
      px      :     1.178597
      py      :     1.063887
      dz2     :     0.003495  d :     0.014202
      dxz     :     0.000026
      dyz     :     0.000008
      dx2y2   :     0.004098
      dxy     :     0.006575
 11 H s       :     0.821394  s :     0.821394


                     *******************************
                     * LOEWDIN POPULATION ANALYSIS *
                     *******************************

----------------------
LOEWDIN ATOMIC CHARGES
----------------------
   0 C :   -0.119901
   1 H :    0.121349
   2 C :   -0.121981
   3 H :    0.120889
   4 C :   -0.120924
   5 H :    0.121341
   6 C :   -0.121273
   7 H :    0.120844
   8 C :   -0.119991
   9 H :    0.121173
  10 C :   -0.122703
  11 H :    0.121177

-------------------------------
LOEWDIN REDUCED ORBITAL CHARGES
-------------------------------
  0 C s       :     3.747833  s :     3.747833
      pz      :     0.007645  p :     2.352998
      px      :     0.988617
      py      :     1.356737
      dz2     :     0.004737  d :     0.019069
      dxz     :     0.000002
      dyz     :     0.000034
      dx2y2   :     0.013021
      dxy     :     0.001275
  1 H s       :     0.878651  s :     0.878651
  2 C s       :     3.748002  s :     3.748002
      pz      :     0.003314  p :     2.354996
      px      :     1.265301
      py      :     1.086381
      dz2     :     0.004658  d :     0.018983
      dxz     :     0.000087
      dyz     :     0.000045
      dx2y2   :     0.002149
      dxy     :     0.012044
  3 H s       :     0.879111  s :     0.879111
  4 C s       :     3.747997  s :     3.747997
      pz      :     0.002706  p :     2.353865
      px      :     1.280824
      py      :     1.070335
      dz2     :     0.004737  d :     0.019062
      dxz     :     0.000012
      dyz     :     0.000003
      dx2y2   :     0.007037
      dxy     :     0.007274
  5 H s       :     0.878659  s :     0.878659
  6 C s       :     3.747842  s :     3.747842
      pz      :     0.005154  p :     2.354362
      px      :     0.993422
      py      :     1.355785
      dz2     :     0.004723  d :     0.019069
      dxz     :     0.000002
      dyz     :     0.000065
      dx2y2   :     0.013391
      dxy     :     0.000887
  7 H s       :     0.879156  s :     0.879156
  8 C s       :     3.747904  s :     3.747904
      pz      :     0.004004  p :     2.353060
      px      :     1.259543
      py      :     1.089513
      dz2     :     0.004651  d :     0.019027
      dxz     :     0.000104
      dyz     :     0.000058
      dx2y2   :     0.001825
      dxy     :     0.012389
  9 H s       :     0.878827  s :     0.878827
 10 C s       :     3.747852  s :     3.747852
      pz      :     0.005348  p :     2.355793
      px      :     1.266482
      py      :     1.083963
      dz2     :     0.004722  d :     0.019057
      dxz     :     0.000036
      dyz     :     0.000010
      dx2y2   :     0.005441
      dxy     :     0.008848
 11 H s       :     0.878823  s :     0.878823


                      *****************************
                      * MAYER POPULATION ANALYSIS *
                      *****************************

  NA   - Mulliken gross atomic population
  ZA   - Total nuclear charge
  QA   - Mulliken gross atomic charge
  VA   - Mayer's total valence
  BVA  - Mayer's bonded valence
  FA   - Mayer's free valence

  ATOM       NA         ZA         QA         VA         BVA        FA
  0 C      6.1772     6.0000    -0.1772     1.9102     1.9102    -0.0000
  1 H      0.8214     1.0000     0.1786     0.9172     0.9172    -0.0000
  2 C      6.1787     6.0000    -0.1787     1.9104     1.9104     0.0000
  3 H      0.8221     1.0000     0.1779     0.9174     0.9174     0.0000
  4 C      6.1791     6.0000    -0.1791     1.9083     1.9083     0.0000
  5 H      0.8211     1.0000     0.1789     0.9177     0.9177     0.0000
  6 C      6.1777     6.0000    -0.1777     1.9112     1.9112     0.0000
  7 H      0.8223     1.0000     0.1777     0.9171     0.9171     0.0000
  8 C      6.1780     6.0000    -0.1780     1.9084     1.9084    -0.0000
  9 H      0.8213     1.0000     0.1787     0.9175     0.9175    -0.0000
 10 C      6.1798     6.0000    -0.1798     1.9108     1.9108    -0.0000
 11 H      0.8214     1.0000     0.1786     0.9163     0.9163    -0.0000

  Mayer bond orders larger than 0.1
B(  0-C ,  1-H ) :   0.8930 B(  0-C ,  2-C ) :   0.4051 B(  0-C ,  6-C ) :   0.1076 
B(  0-C , 10-C ) :   0.4795 B(  2-C ,  3-H ) :   0.8925 B(  2-C ,  4-C ) :   0.4767 
B(  2-C ,  8-C ) :   0.1100 B(  4-C ,  5-H ) :   0.8921 B(  4-C ,  6-C ) :   0.4043 
B(  4-C , 10-C ) :   0.1114 B(  6-C ,  7-H ) :   0.8935 B(  6-C ,  8-C ) :   0.4804 
B(  8-C ,  9-H ) :   0.8924 B(  8-C , 10-C ) :   0.4021 B( 10-C , 11-H ) :   0.8929 


-------
TIMINGS
-------

Total SCF time: 0 days 0 hours 0 min 20 sec 

Total time                  ....      20.798 sec
Sum of individual times     ....      20.515 sec  ( 98.6%)

Fock matrix formation       ....      19.032 sec  ( 91.5%)
  XC integration            ....       3.472 sec  ( 18.2% of F)
    Basis function eval.    ....       1.444 sec  ( 41.6% of XC)
    Density eval.           ....       0.198 sec  (  5.7% of XC)
    XC-Functional eval.     ....       1.094 sec  ( 31.5% of XC)
    XC-Potential eval.      ....       0.161 sec  (  4.6% of XC)
Diagonalization             ....       0.023 sec  (  0.1%)
Density matrix formation    ....       0.002 sec  (  0.0%)
Population analysis         ....       0.013 sec  (  0.1%)
Initial guess               ....       0.235 sec  (  1.1%)
Orbital Transformation      ....       0.000 sec  (  0.0%)
Orbital Orthonormalization  ....       0.000 sec  (  0.0%)
DIIS solution               ....       0.000 sec  (  0.0%)
Grid generation             ....       1.210 sec  (  5.8%)


-------------------------------------------------------------------------------
                          DFT DISPERSION CORRECTION                            
                                                                               
                              DFTD3 V3.1  Rev 1                                
                              USING zero damping                               
-------------------------------------------------------------------------------
The omegaB97X-D3 functional is recognized. Fit by Chai et al.
Active option DFTDOPT                   ...         3   

molecular C6(AA) [au] = 2491.559547 


            DFT-D V3
 parameters
 s6 scaling factor         :     1.0000 
 rs6 scaling factor        :     1.2810 
 s8 scaling factor         :     1.0000 
 rs8 scaling factor        :     1.0940 
 Damping factor alpha6     :    14.0000 
 Damping factor alpha8     :    16.0000 
 ad hoc parameters k1-k3   :    16.0000     1.3333    -4.0000 

 Edisp/kcal,au: -1.333378167600  -0.002124873138 
 E6   /kcal   :  -0.586037254 
 E8   /kcal   :  -0.747340914 
 % E8         :  56.048683862 

-------------------------   ----------------
Dispersion correction           -0.002124873
-------------------------   ----------------


-------------------------   --------------------
FINAL SINGLE POINT ENERGY      -230.434188223689
-------------------------   --------------------


                            ***************************************
                            *     ORCA property calculations      *
                            ***************************************

                                    ---------------------
                                    Active property flags
                                    ---------------------
   (+) Dipole Moment


------------------------------------------------------------------------------
                       ORCA ELECTRIC PROPERTIES CALCULATION
------------------------------------------------------------------------------

Dipole Moment Calculation                       ... on
Quadrupole Moment Calculation                   ... off
Polarizability Calculation                      ... off
GBWName                                         ... Scan_36.gbw
Electron density file                           ... Scan_36.scfp.tmp

-------------
DIPOLE MOMENT
-------------
                                X             Y             Z
Electronic contribution:     -0.00266       0.00957       0.00088
Nuclear contribution   :      0.00263      -0.03377       0.00051
                        -----------------------------------------
Total Dipole Moment    :     -0.00003      -0.02420       0.00139
                        -----------------------------------------
Magnitude (a.u.)       :      0.02424
Magnitude (Debye)      :      0.06162


Timings for individual modules:

Sum of individual times         ...       21.427 sec (=   0.357 min)
GTO integral calculation        ...        0.605 sec (=   0.010 min)   2.8 %
SCF iterations                  ...       20.821 sec (=   0.347 min)  97.2 %
                             ****ORCA TERMINATED NORMALLY****
TOTAL RUN TIME: 0 days 0 hours 0 minutes 21 seconds 746 msec
