
                                 *****************
                                 * O   R   C   A *
                                 *****************

           --- An Ab Initio, DFT and Semiempirical electronic structure package ---

                  #######################################################
                  #                        -***-                        #
                  #  Department of molecular theory and spectroscopy    #
                  #              Directorship: Frank Neese              #
                  # Max Planck Institute for Chemical Energy Conversion #
                  #                  D-45470 Muelheim/Ruhr              #
                  #                       Germany                       #
                  #                                                     #
                  #                  All rights reserved                #
                  #                        -***-                        #
                  #######################################################


                         Program Version 4.0.0.2 - RELEASE -


 With contributions from (in alphabetic order):
   Daniel Aravena         : Magnetic Properties
   Michael Atanasov       : Ab Initio Ligand Field Theory
   Ute Becker             : Parallelization
   Martin Brehm           : Molecular dynamics
   Dmytro Bykov           : SCF Hessian
   Vijay G. Chilkuri      : MRCI spin determinant printing
   Dipayan Datta          : RHF DLPNO-CCSD density
   Achintya Kumar Dutta   : EOM-CC, STEOM-CC
   Dmitry Ganyushin       : Spin-Orbit,Spin-Spin,Magnetic field MRCI
   Yang Guo               : DLPNO-NEVPT2, CIM, IAO-localization
   Andreas Hansen         : Spin unrestricted coupled pair/coupled cluster methods
   Lee Huntington         : MR-EOM, pCC
   Robert Izsak           : Overlap fitted RIJCOSX, COSX-SCS-MP3, EOM
   Christian Kollmar      : KDIIS, OOCD, Brueckner-CCSD(T), CCSD density
   Simone Kossmann        : Meta GGA functionals, TD-DFT gradient, OOMP2, MP2 Hessian
   Martin Krupicka        : AUTO-CI
   Dagmar Lenk            : GEPOL surface
   Dimitrios Liakos       : Extrapolation schemes; parallel MDCI
   Dimitrios Manganas     : ROCIS; embedding schemes
   Dimitrios Pantazis     : SARC Basis sets
   Taras Petrenko         : DFT Hessian,TD-DFT gradient, ASA, ECA, R-Raman, ABS, FL, XAS/XES, NRVS
   Peter Pinski           : DLPNO-MP2
   Christoph Reimann      : Effective Core Potentials
   Marius Retegan         : Local ZFS, SOC
   Christoph Riplinger    : Optimizer, TS searches, QM/MM, DLPNO-CCSD(T), (RO)-DLPNO pert. Triples
   Tobias Risthaus        : Range-separated hybrids, TD-DFT gradient, RPA, STAB
   Michael Roemelt        : Restricted open shell CIS
   Masaaki Saitow         : Open-shell DLPNO
   Barbara Sandhoefer     : DKH picture change effects
   Kantharuban Sivalingam : CASSCF convergence, NEVPT2, FIC-MRCI
   Georgi Stoychev        : AutoAux
   Boris Wezisla          : Elementary symmetry handling
   Frank Wennmohs         : Technical directorship


 We gratefully acknowledge several colleagues who have allowed us to
 interface, adapt or use parts of their codes:
   Stefan Grimme, W. Hujo, H. Kruse,             : VdW corrections, initial TS optimization,
                  C. Bannwarth                     DFT functionals, gCP, sTDA/sTD-DF
   Ed Valeev                                     : LibInt (2-el integral package), F12 methods
   Garnet Chan, S. Sharma, J. Yang, R. Olivares  : DMRG
   Ulf Ekstrom                                   : XCFun DFT Library
   Mihaly Kallay                                 : mrcc  (arbitrary order and MRCC methods)
   Jiri Pittner, Ondrej Demel                    : Mk-CCSD
   Frank Weinhold                                : gennbo (NPA and NBO analysis)
   Christopher J. Cramer and Donald G. Truhlar   : smd solvation model


 Your calculation uses the libint2 library for the computation of 2-el integrals
 For citations please refer to: http://libint.valeyev.net

 This ORCA versions uses:
   CBLAS   interface :  Fast vector & matrix operations
   LAPACKE interface :  Fast linear algebra routines
   SCALAPACK package :  Parallel linear algebra routines


Your calculation utilizes the atom-pairwise dispersion correction
with the zero-damping scheme (D30)
Cite in your paper:
S.Grimme, J.Antony, S.Ehrlich and H.Krieg, J.Chem.Phys., 132, (2010), 154104 
   

XCFun DFT library Copyright 2009-2010 Ulf Ekstrom and contributors.
See http://admol.org/xcfun for more information. This is free soft-
ware; see the source code for copying conditions. There is ABSOLUTELY
NO WARRANTY; not even for MERCHANTABILITY or FITNESS FOR A PARTICULAR
PURPOSE. For details see the documentation. Scientific users of this 
library should cite U. Ekstrom, L. Visscher, R. Bast, A. J. Thorvald-
sen and K. Ruud; J.Chem.Theor.Comp. 2010, DOI: 10.1021/ct100117s
XCFun Version 0.99 
Your calculation utilizes the basis: 6-31G(d)
   H-He, Li-Ne : W. J. Hehre, R. Ditchfield and J.A. Pople, J. Chem. Phys. 56, 2257 (1972).
                 Note: He and Ne are unpublished basis sets taken from the Gaussian program.
                 Note: Li and B from J. D. Dill and J. A. Pople, J. Chem. Phys. 62, 2921 (1975).
   Na - Ar     : M. M. Francl, W. J. Pietro, W. J. Hehre, J. S. Binkley, M. S. Gordon, 
                 D. J. DeFrees and J. A. Pople, J. Chem. Phys. 77, 3654 (1982).
   K - Zn      : V. A. Rassolov, J. A. Pople, M. A. Ratner, and T. L. Windus, J. Chem. Phys. 109, 1223 (1998).

================================================================================
                                        WARNINGS
                       Please study these warnings very carefully!
================================================================================

Warning: TCutStore was < 0. Adjusted to Thresh (uncritical)

INFO   : the flag for use of LIBINT has been found!

================================================================================
                                       INPUT FILE
================================================================================
NAME = initial37.inp
|  1> ! WB97X-D3 6-31G(d) VerySlowConv
|  2> ! KDIIS NOSOSCF
|  3> %base "Scan_37"
|  4> 
|  5> %scf
|  6> maxiter 999
|  7> end
|  8> 
|  9> * xyz 0 1
| 10> C          4.336619408485   -2.499143052255    0.130755670802
| 11> H          4.222130409684   -3.605541477031    0.101454782861
| 12> C          2.016535168935    0.974169498943   -0.050524003696
| 13> H          2.935194163829    0.348628197199    0.001044593668
| 14> C         -2.156526985409    0.719479356047   -0.062887294571
| 15> H         -1.144360855890    1.180242701714   -0.096830137806
| 16> C         -4.081942951114   -2.987461701736    0.112906256965
| 17> H         -3.977929866816   -1.879917713406    0.093374114206
| 18> C         -1.753838417888   -6.457354245305   -0.025491747635
| 19> H         -2.667290929424   -5.824478819444    0.030097101757
| 20> C          2.418773821896   -6.206752854423   -0.103532736751
| 21> H          1.411247033725   -6.677979890290   -0.130366599732
| 22> **                         ****END OF INPUT****
================================================================================

                       ****************************
                       * Single Point Calculation *
                       ****************************

---------------------------------
CARTESIAN COORDINATES (ANGSTROEM)
---------------------------------
  C      4.336619   -2.499143    0.130756
  H      4.222130   -3.605541    0.101455
  C      2.016535    0.974169   -0.050524
  H      2.935194    0.348628    0.001045
  C     -2.156527    0.719479   -0.062887
  H     -1.144361    1.180243   -0.096830
  C     -4.081943   -2.987462    0.112906
  H     -3.977930   -1.879918    0.093374
  C     -1.753838   -6.457354   -0.025492
  H     -2.667291   -5.824479    0.030097
  C      2.418774   -6.206753   -0.103533
  H      1.411247   -6.677980   -0.130367

----------------------------
CARTESIAN COORDINATES (A.U.)
----------------------------
  NO LB      ZA    FRAG     MASS         X           Y           Z
   0 C     6.0000    0    12.011    8.195023   -4.722696    0.247092
   1 H     1.0000    0     1.008    7.978670   -6.813486    0.191722
   2 C     6.0000    0    12.011    3.810699    1.840914   -0.095477
   3 H     1.0000    0     1.008    5.546713    0.658812    0.001974
   4 C     6.0000    0    12.011   -4.075245    1.359619   -0.118840
   5 H     1.0000    0     1.008   -2.162529    2.230335   -0.182982
   6 C     6.0000    0    12.011   -7.713754   -5.645484    0.213362
   7 H     1.0000    0     1.008   -7.517198   -3.552530    0.176452
   8 C     6.0000    0    12.011   -3.314274  -12.202631   -0.048172
   9 H     1.0000    0     1.008   -5.040449  -11.006670    0.056875
  10 C     6.0000    0    12.011    4.570820  -11.729063   -0.195649
  11 H     1.0000    0     1.008    2.666870  -12.619553   -0.246357

--------------------------------
INTERNAL COORDINATES (ANGSTROEM)
--------------------------------
 C      0   0   0     0.000000000000     0.00000000     0.00000000
 H      1   0   0     1.112692116997     0.00000000     0.00000000
 C      1   2   0     4.180855567621   140.15909073     0.00000000
 H      3   1   2     1.112607563034    21.98424949   184.40419159
 C      3   1   2     4.180845328862   120.22630947     6.59789254
 H      5   3   1     1.112625386670    21.06813081   182.53222590
 C      5   3   1     4.180854221284   120.90145797     0.13274527
 H      7   5   3     1.112588833483    22.11675729   175.09794385
 C      7   5   3     4.180834723978   118.55712128   354.88321267
 H      9   7   5     1.112662085121    21.42772370   180.77421152
 C      2   1   3     3.171815804202   151.12385633   359.24234798
 H     11   2   1     1.112602896103   149.74165291   352.78507545

---------------------------
INTERNAL COORDINATES (A.U.)
---------------------------
 C      0   0   0     0.000000000000     0.00000000     0.00000000
 H      1   0   0     2.102683372498     0.00000000     0.00000000
 C      1   2   0     7.900672028283   140.15909073     0.00000000
 H      3   1   2     2.102523588665    21.98424949   184.40419159
 C      3   1   2     7.900652679833   120.22630947     6.59789254
 H      5   3   1     2.102557270455    21.06813081   182.53222590
 C      5   3   1     7.900669484076   120.90145797     0.13274527
 H      7   5   3     2.102488194942    22.11675729   175.09794385
 C      7   5   3     7.900632639507   118.55712128   354.88321267
 H      9   7   5     2.102626620477    21.42772370   180.77421152
 C      2   1   3     5.993863217186   151.12385633   359.24234798
 H     11   2   1     2.102514769442   149.74165291   352.78507545

---------------------
BASIS SET INFORMATION
---------------------
There are 2 groups of distinct atoms

 Group   1 Type C   : 10s4p1d contracted to 3s2p1d pattern {631/31/1}
 Group   2 Type H   : 4s contracted to 2s pattern {31}

Atom   0C    basis set group =>   1
Atom   1H    basis set group =>   2
Atom   2C    basis set group =>   1
Atom   3H    basis set group =>   2
Atom   4C    basis set group =>   1
Atom   5H    basis set group =>   2
Atom   6C    basis set group =>   1
Atom   7H    basis set group =>   2
Atom   8C    basis set group =>   1
Atom   9H    basis set group =>   2
Atom  10C    basis set group =>   1
Atom  11H    basis set group =>   2
------------------------------------------------------------------------------
                           ORCA GTO INTEGRAL CALCULATION
------------------------------------------------------------------------------

                         BASIS SET STATISTICS AND STARTUP INFO

 # of primitive gaussian shells          ...  114
 # of primitive gaussian functions       ...  186
 # of contracted shells                  ...   48
 # of contracted basis functions         ...   96
 Highest angular momentum                ...    2
 Maximum contraction depth               ...    6
 Integral package used                   ... LIBINT
 Integral threshhold            Thresh   ...  1.000e-10
 Primitive cut-off              TCut     ...  1.000e-11


------------------------------ INTEGRAL EVALUATION ----------------------------


 * One electron integrals 
 Pre-screening matrix                    ... done
 Shell pair data                         ... done (   0.000 sec)

-------------------------------------------------------------------------------
                                 ORCA SCF
-------------------------------------------------------------------------------

------------
SCF SETTINGS
------------
Hamiltonian:
 Density Functional     Method          .... DFT(GTOs)
 Exchange Functional    Exchange        .... WB97X-D3
 Correlation Functional Correlation     .... WB97X-D3
 Gradients option       PostSCFGGA      .... off
 Hybrid DFT is turned on
   Fraction HF Exchange ScalHFX         ....  0.195728
   Scaling of DF-GGA-X  ScalDFX         ....  0.000000
   Scaling of DF-GGA-C  ScalDFC         ....  1.000000
   Scaling of DF-LDA-C  ScalLDAC        ....  1.000000
   Perturbative correction              ....  0.000000
 Long-range corrected/Screened/Range-Separated Hybrid DFT is turned on
   Amount of maximum screened exact exchange              ....  0.804272
   Range separation parameter mu (erf(mu*r12)/r12)        ....  0.250000


General Settings:
 Integral files         IntName         .... Scan_37
 Hartree-Fock type      HFTyp           .... RHF
 Total Charge           Charge          ....    0
 Multiplicity           Mult            ....    1
 Number of Electrons    NEL             ....   42
 Basis Dimension        Dim             ....   96
 Nuclear Repulsion      ENuc            ....     85.8841184341 Eh

Convergence Acceleration:
 DIIS                   CNVDIIS         .... on
   Start iteration      DIISMaxIt       ....     0
   Startup error        DIISStart       ....  0.200000
   # of expansion vecs  DIISMaxEq       ....     5
   Bias factor          DIISBfac        ....   1.050
   Max. coefficient     DIISMaxC        ....  10.000
 Newton-Raphson         CNVNR           .... off
 SOSCF                  CNVSOSCF        .... off
 Level Shifting         CNVShift        .... off
 Zerner damping         CNVZerner       .... off
 Static damping         CNVDamp         .... off
 Fernandez-Rico         CNVRico         .... off

SCF Procedure:
 Maximum # iterations   MaxIter         ....   999
 SCF integral mode      SCFMode         .... Direct
   Integral package                     .... LIBINT
 Reset frequeny         DirectResetFreq ....    20
 Integral Threshold     Thresh          ....  1.000e-10 Eh
 Primitive CutOff       TCut            ....  1.000e-11 Eh

Convergence Tolerance:
 Convergence Check Mode ConvCheckMode   .... All-Criteria
 Convergence forced     ConvForced      .... 0
 Energy Change          TolE            ....  1.000e-06 Eh
 Max Density Change     TolMaxP         ....  1.000e-05
 RMS Density Change     TolRMSP         ....  1.000e-06
 DIIS Error             TolErr          ....  1.000e-06


Diagonalization of the overlap matrix:
Smallest eigenvalue                        ... 3.529e-02
Time for diagonalization                   ...    0.002 sec
Threshold for overlap eigenvalues          ... 1.000e-08
Number of eigenvalues below threshold      ... 0
Time for construction of square roots      ...    0.008 sec
Total time needed                          ...    0.010 sec

-------------------
DFT GRID GENERATION
-------------------

General Integration Accuracy     IntAcc      ...  4.340
Radial Grid Type                 RadialGrid  ... Gauss-Chebyshev
Angular Grid (max. acc.)         AngularGrid ... Lebedev-110
Angular grid pruning method      GridPruning ... 3 (G Style)
Weight generation scheme         WeightScheme... Becke
Basis function cutoff            BFCut       ...    1.0000e-10
Integration weight cutoff        WCut        ...    1.0000e-14
Grids for H and He will be reduced by one unit

# of grid points (after initial pruning)     ...  14700 (   0.0 sec)
# of grid points (after weights+screening)   ...  14364 (   0.0 sec)
nearest neighbour list constructed           ...    0.0 sec
Grid point re-assignment to atoms done       ...    0.0 sec
Grid point division into batches done        ...    0.0 sec
Reduced shell lists constructed in    0.1 sec

Total number of grid points                  ...    14364
Total number of batches                      ...      232
Average number of points per batch           ...       61
Average number of grid points per atom       ...     1197
Average number of shells per batch           ...    18.60 (38.75%)
Average number of basis functions per batch  ...    35.91 (37.41%)
Average number of large shells per batch     ...    12.66 (68.07%)
Average number of large basis fcns per batch ...    24.76 (68.93%)
Maximum spatial batch extension              ...  20.41, 21.07, 31.36 au
Average spatial batch extension              ...   4.81,  4.92,  6.31 au

Time for grid setup =    0.210 sec

------------------------------
INITIAL GUESS: MODEL POTENTIAL
------------------------------
Loading Hartree-Fock densities                     ... done
Calculating cut-offs                               ... done
Setting up the integral package                    ... done
Initializing the effective Hamiltonian             ... done
Starting the Coulomb interaction                   ... done (   0.0 sec)
Reading the grid                                   ... done
Mapping shells                                     ... done
Starting the XC term evaluation                    ... done (   0.1 sec)
  promolecular density results
     # of electrons  =     41.993686821
     EX              =    -31.544056136
     EC              =     -1.140999778
     EX+EC           =    -32.685055914
Transforming the Hamiltonian                       ... done (   0.0 sec)
Diagonalizing the Hamiltonian                      ... done (   0.0 sec)
Back transforming the eigenvectors                 ... done (   0.0 sec)
Now organizing SCF variables                       ... done
                      ------------------
                      INITIAL GUESS DONE (   0.5 sec)
                      ------------------
--------------
SCF ITERATIONS
--------------
ITER       Energy         Delta-E        Max-DP      RMS-DP      [F,P]   Gradient Norm
               ***  Starting incremental Fock matrix formation  ***
                             ****Resetting KDIIS****
                             ****Turning on KDIIS(Cayley)****
  0   -230.4039526244   0.000000000000 0.01056555  0.00034838  0.0299370   0.026853066
  1   -230.4084841423  -0.004531517918 0.00921571  0.00045615  0.0257028   0.023661732
  2   -230.4134473312  -0.004963188955 0.01691935  0.00073915  0.0210323   0.019148942
  3   -230.4196319223  -0.006184591048 0.02809625  0.00123534  0.0131760   0.011630156
  4   -230.4234993574  -0.003867435115 0.00163539  0.00008736  0.0005847   0.000402911
  5   -230.4235189996  -0.000019642230 0.00124056  0.00005731  0.0003520   0.000286520
  6   -230.4235291810  -0.000010181413 0.00084142  0.00004855  0.0003193   0.000182738
  7   -230.4235365031  -0.000007322023 0.00045433  0.00002327  0.0003612   0.000151757
  8   -230.4235401441  -0.000003641003 0.00017212  0.00000866  0.0003658   0.000123531
  9   -230.4235415426  -0.000001398581 0.00131500  0.00006110  0.0003744   0.000123033
 10   -230.4235321280   0.000009414684 0.00422420  0.00020933  0.0003449   0.000125030
 11   -230.4235095969   0.000022531033 0.00172385  0.00008805  0.0001788   0.000108944
 12   -230.4235052680   0.000004328952 0.00097633  0.00004816  0.0001421   0.000079405
                          ***Energy convergence achieved***
 13   -230.4235043658   0.000000902206 0.00048855  0.00002364  0.0001036   0.000059065
 14   -230.4235043354   0.000000030391 0.00071651  0.00003039  0.0001095   0.000049766
 15   -230.4235047924  -0.000000456998 0.00059854  0.00002712  0.0000628   0.000038107
 16   -230.4235051500  -0.000000357596 0.00024970  0.00001200  0.0000483   0.000030478

            ***Energy convergence in two consecutive cycles with***
                    ***'reasonable' density convergence***
                       *** signaling convergence ***

                    *** KDIIS BlockDiag ( 0.001 sec) ***

               *****************************************************
               *                     SUCCESS                       *
               *           SCF CONVERGED AFTER  17 CYCLES          *
               *****************************************************

Setting up the final grid:

General Integration Accuracy     IntAcc      ...  4.670
Radial Grid Type                 RadialGrid  ... Gauss-Chebyshev
Angular Grid (max. acc.)         AngularGrid ... Lebedev-302
Angular grid pruning method      GridPruning ... 3 (G Style)
Weight generation scheme         WeightScheme... Becke
Basis function cutoff            BFCut       ...    1.0000e-10
Integration weight cutoff        WCut        ...    1.0000e-14
Grids for H and He will be reduced by one unit

# of grid points (after initial pruning)     ...  57636 (   0.0 sec)
# of grid points (after weights+screening)   ...  56012 (   0.1 sec)
nearest neighbour list constructed           ...    0.0 sec
Grid point re-assignment to atoms done       ...    0.0 sec
Grid point division into batches done        ...    0.2 sec
Reduced shell lists constructed in    0.6 sec

Total number of grid points                  ...    56012
Total number of batches                      ...      882
Average number of points per batch           ...       63
Average number of grid points per atom       ...     4668
Average number of shells per batch           ...    15.70 (32.70%)
Average number of basis functions per batch  ...    30.28 (31.54%)
Average number of large shells per batch     ...    11.08 (70.58%)
Average number of large basis fcns per batch ...    21.64 (71.47%)
Maximum spatial batch extension              ...  20.48, 18.04, 24.48 au
Average spatial batch extension              ...   3.16,  3.22,  3.70 au

Final grid set up in    0.7 sec
Final integration                            ... done (   0.4 sec)
Change in XC energy                          ...     0.000694487
Integrated number of electrons               ...    41.999990151
Previous integrated no of electrons          ...    41.998914324

----------------
TOTAL SCF ENERGY
----------------

Total Energy       :         -230.42281097 Eh           -6270.12345 eV

Components:
Nuclear Repulsion  :           85.88411843 Eh            2337.02567 eV
Electronic Energy  :         -316.30692941 Eh           -8607.14913 eV
One Electron Energy:         -477.51482180 Eh          -12993.83890 eV
Two Electron Energy:          161.20789239 Eh            4386.68977 eV

Virial components:
Potential Energy   :         -459.78330373 Eh          -12511.33976 eV
Kinetic Energy     :          229.36049275 Eh            6241.21631 eV
Virial Ratio       :            2.00463165


DFT components:
N(Alpha)           :       20.999995075708 electrons
N(Beta)            :       20.999995075708 electrons
N(Total)           :       41.999990151416 electrons
E(XC)              :      -22.772886986070 Eh       

---------------
SCF CONVERGENCE
---------------

  Last Energy change         ...   -3.1154e-07  Tolerance :   1.0000e-06
  Last MAX-Density change    ...    9.6450e-05  Tolerance :   1.0000e-05
  Last RMS-Density change    ...    5.2599e-06  Tolerance :   1.0000e-06
  Last DIIS Error            ...    4.4947e-05  Tolerance :   1.0000e-06

             **** THE GBW FILE WAS UPDATED (Scan_37.gbw) ****
             **** DENSITY FILE WAS UPDATED (Scan_37.scfp.tmp) ****
             **** ENERGY FILE WAS UPDATED (Scan_37.en.tmp) ****
----------------
ORBITAL ENERGIES
----------------

  NO   OCC          E(Eh)            E(eV) 
   0   2.0000     -10.393575      -282.8235 
   1   2.0000     -10.393500      -282.8215 
   2   2.0000     -10.393436      -282.8198 
   3   2.0000     -10.393345      -282.8173 
   4   2.0000     -10.393312      -282.8164 
   5   2.0000     -10.393255      -282.8148 
   6   2.0000      -0.739949       -20.1350 
   7   2.0000      -0.738538       -20.0966 
   8   2.0000      -0.738344       -20.0913 
   9   2.0000      -0.735172       -20.0051 
  10   2.0000      -0.735008       -20.0006 
  11   2.0000      -0.733590       -19.9620 
  12   2.0000      -0.415935       -11.3182 
  13   2.0000      -0.410118       -11.1599 
  14   2.0000      -0.410003       -11.1567 
  15   2.0000      -0.397708       -10.8222 
  16   2.0000      -0.397459       -10.8154 
  17   2.0000      -0.390749       -10.6328 
  18   2.0000      -0.241058        -6.5595 
  19   2.0000      -0.218128        -5.9356 
  20   2.0000      -0.217921        -5.9299 
  21   0.0000      -0.108530        -2.9533 
  22   0.0000      -0.108307        -2.9472 
  23   0.0000      -0.085934        -2.3384 
  24   0.0000      -0.032971        -0.8972 
  25   0.0000      -0.031980        -0.8702 
  26   0.0000      -0.031847        -0.8666 
  27   0.0000      -0.029875        -0.8129 
  28   0.0000      -0.029734        -0.8091 
  29   0.0000      -0.028760        -0.7826 
  30   0.0000       0.188835         5.1385 
  31   0.0000       0.209861         5.7106 
  32   0.0000       0.210031         5.7152 
  33   0.0000       0.259174         7.0525 
  34   0.0000       0.260147         7.0790 
  35   0.0000       0.289820         7.8864 
  36   0.0000       0.621054        16.8997 
  37   0.0000       0.628797        17.1104 
  38   0.0000       0.629197        17.1213 
  39   0.0000       0.642143        17.4736 
  40   0.0000       0.642941        17.4953 
  41   0.0000       0.644391        17.5348 
  42   0.0000       0.648693        17.6518 
  43   0.0000       0.649642        17.6777 
  44   0.0000       0.650420        17.6988 
  45   0.0000       0.661999        18.0139 
  46   0.0000       0.662066        18.0157 
  47   0.0000       0.668385        18.1877 
  48   0.0000       0.684352        18.6222 
  49   0.0000       0.688679        18.7399 
  50   0.0000       0.689493        18.7621 
  51   0.0000       0.696965        18.9654 
  52   0.0000       0.698060        18.9952 
  53   0.0000       0.702138        19.1062 
  54   0.0000       0.745034        20.2734 
  55   0.0000       0.747268        20.3342 
  56   0.0000       0.747601        20.3433 
  57   0.0000       0.754848        20.5405 
  58   0.0000       0.755640        20.5620 
  59   0.0000       0.760827        20.7032 
  60   0.0000       1.042273        28.3617 
  61   0.0000       1.055981        28.7347 
  62   0.0000       1.056526        28.7495 
  63   0.0000       1.091136        29.6913 
  64   0.0000       1.093573        29.7576 
  65   0.0000       1.117192        30.4003 
  66   0.0000       1.753062        47.7032 
  67   0.0000       1.753142        47.7054 
  68   0.0000       1.753170        47.7062 
  69   0.0000       1.753181        47.7065 
  70   0.0000       1.753460        47.7141 
  71   0.0000       1.753512        47.7155 
  72   0.0000       1.768734        48.1297 
  73   0.0000       1.768867        48.1333 
  74   0.0000       1.768909        48.1345 
  75   0.0000       1.769063        48.1386 
  76   0.0000       1.769432        48.1487 
  77   0.0000       1.769554        48.1520 
  78   0.0000       1.778251        48.3887 
  79   0.0000       1.778344        48.3912 
  80   0.0000       1.778591        48.3979 
  81   0.0000       1.778864        48.4053 
  82   0.0000       1.779064        48.4108 
  83   0.0000       1.779162        48.4135 
  84   0.0000       1.782375        48.5009 
  85   0.0000       1.782391        48.5013 
  86   0.0000       1.783011        48.5182 
  87   0.0000       1.783268        48.5252 
  88   0.0000       1.783663        48.5359 
  89   0.0000       1.783743        48.5381 
  90   0.0000       2.205848        60.0242 
  91   0.0000       2.206523        60.0426 
  92   0.0000       2.206611        60.0449 
  93   0.0000       2.208401        60.0937 
  94   0.0000       2.208631        60.0999 
  95   0.0000       2.209877        60.1338 

                    ********************************
                    * MULLIKEN POPULATION ANALYSIS *
                    ********************************

-----------------------
MULLIKEN ATOMIC CHARGES
-----------------------
   0 C :   -0.175081
   1 H :    0.175996
   2 C :   -0.176742
   3 H :    0.176206
   4 C :   -0.177304
   5 H :    0.177087
   6 C :   -0.175254
   7 H :    0.175787
   8 C :   -0.176432
   9 H :    0.176363
  10 C :   -0.177532
  11 H :    0.176906
Sum of atomic charges:   -0.0000000

--------------------------------
MULLIKEN REDUCED ORBITAL CHARGES
--------------------------------
  0 C s       :     3.917992  s :     3.917992
      pz      :     0.006783  p :     2.242804
      px      :     0.987797
      py      :     1.248224
      dz2     :     0.003530  d :     0.014286
      dxz     :     0.000002
      dyz     :     0.000031
      dx2y2   :     0.009762
      dxy     :     0.000960
  1 H s       :     0.824004  s :     0.824004
  2 C s       :     3.918439  s :     3.918439
      pz      :     0.003292  p :     2.244087
      px      :     1.192506
      py      :     1.048290
      dz2     :     0.003472  d :     0.014215
      dxz     :     0.000059
      dyz     :     0.000032
      dx2y2   :     0.001779
      dxy     :     0.008874
  3 H s       :     0.823794  s :     0.823794
  4 C s       :     3.918822  s :     3.918822
      pz      :     0.003337  p :     2.244217
      px      :     1.183693
      py      :     1.057186
      dz2     :     0.003510  d :     0.014265
      dxz     :     0.000031
      dyz     :     0.000008
      dx2y2   :     0.004761
      dxy     :     0.005956
  5 H s       :     0.822913  s :     0.822913
  6 C s       :     3.917873  s :     3.917873
      pz      :     0.004817  p :     2.243096
      px      :     0.990440
      py      :     1.247839
      dz2     :     0.003539  d :     0.014285
      dxz     :     0.000001
      dyz     :     0.000015
      dx2y2   :     0.009844
      dxy     :     0.000886
  7 H s       :     0.824213  s :     0.824213
  8 C s       :     3.918480  s :     3.918480
      pz      :     0.003139  p :     2.243731
      px      :     1.190835
      py      :     1.049757
      dz2     :     0.003466  d :     0.014221
      dxz     :     0.000069
      dyz     :     0.000036
      dx2y2   :     0.001679
      dxy     :     0.008972
  9 H s       :     0.823637  s :     0.823637
 10 C s       :     3.918744  s :     3.918744
      pz      :     0.004860  p :     2.244528
      px      :     1.182286
      py      :     1.057382
      dz2     :     0.003516  d :     0.014260
      dxz     :     0.000020
      dyz     :     0.000005
      dx2y2   :     0.004566
      dxy     :     0.006153
 11 H s       :     0.823094  s :     0.823094


                     *******************************
                     * LOEWDIN POPULATION ANALYSIS *
                     *******************************

----------------------
LOEWDIN ATOMIC CHARGES
----------------------
   0 C :   -0.119009
   1 H :    0.119943
   2 C :   -0.120559
   3 H :    0.119942
   4 C :   -0.120396
   5 H :    0.120342
   6 C :   -0.119472
   7 H :    0.119829
   8 C :   -0.119959
   9 H :    0.120017
  10 C :   -0.120940
  11 H :    0.120260

-------------------------------
LOEWDIN REDUCED ORBITAL CHARGES
-------------------------------
  0 C s       :     3.749539  s :     3.749539
      pz      :     0.006871  p :     2.350287
      px      :     0.990126
      py      :     1.353290
      dz2     :     0.004767  d :     0.019183
      dxz     :     0.000002
      dyz     :     0.000042
      dx2y2   :     0.013248
      dxy     :     0.001124
  1 H s       :     0.880057  s :     0.880057
  2 C s       :     3.749576  s :     3.749576
      pz      :     0.003527  p :     2.351874
      px      :     1.262943
      py      :     1.085404
      dz2     :     0.004698  d :     0.019110
      dxz     :     0.000081
      dyz     :     0.000042
      dx2y2   :     0.002249
      dxy     :     0.012040
  3 H s       :     0.880058  s :     0.880058
  4 C s       :     3.749630  s :     3.749630
      pz      :     0.003430  p :     2.351606
      px      :     1.274321
      py      :     1.073856
      dz2     :     0.004747  d :     0.019159
      dxz     :     0.000042
      dyz     :     0.000010
      dx2y2   :     0.006357
      dxy     :     0.008003
  5 H s       :     0.879658  s :     0.879658
  6 C s       :     3.749465  s :     3.749465
      pz      :     0.004859  p :     2.350819
      px      :     0.992524
      py      :     1.353436
      dz2     :     0.004780  d :     0.019188
      dxz     :     0.000001
      dyz     :     0.000020
      dx2y2   :     0.013364
      dxy     :     0.001023
  7 H s       :     0.880171  s :     0.880171
  8 C s       :     3.749604  s :     3.749604
      pz      :     0.003405  p :     2.351244
      px      :     1.260110
      py      :     1.087729
      dz2     :     0.004688  d :     0.019110
      dxz     :     0.000094
      dyz     :     0.000048
      dx2y2   :     0.002110
      dxy     :     0.012170
  9 H s       :     0.879983  s :     0.879983
 10 C s       :     3.749615  s :     3.749615
      pz      :     0.004921  p :     2.352165
      px      :     1.272205
      py      :     1.075040
      dz2     :     0.004757  d :     0.019160
      dxz     :     0.000027
      dyz     :     0.000007
      dx2y2   :     0.006091
      dxy     :     0.008278
 11 H s       :     0.879740  s :     0.879740


                      *****************************
                      * MAYER POPULATION ANALYSIS *
                      *****************************

  NA   - Mulliken gross atomic population
  ZA   - Total nuclear charge
  QA   - Mulliken gross atomic charge
  VA   - Mayer's total valence
  BVA  - Mayer's bonded valence
  FA   - Mayer's free valence

  ATOM       NA         ZA         QA         VA         BVA        FA
  0 C      6.1751     6.0000    -0.1751     1.9092     1.9092    -0.0000
  1 H      0.8240     1.0000     0.1760     0.9156     0.9156    -0.0000
  2 C      6.1767     6.0000    -0.1767     1.9089     1.9089     0.0000
  3 H      0.8238     1.0000     0.1762     0.9155     0.9155     0.0000
  4 C      6.1773     6.0000    -0.1773     1.9085     1.9085    -0.0000
  5 H      0.8229     1.0000     0.1771     0.9152     0.9152     0.0000
  6 C      6.1753     6.0000    -0.1753     1.9097     1.9097     0.0000
  7 H      0.8242     1.0000     0.1758     0.9154     0.9154     0.0000
  8 C      6.1764     6.0000    -0.1764     1.9084     1.9084     0.0000
  9 H      0.8236     1.0000     0.1764     0.9157     0.9157    -0.0000
 10 C      6.1775     6.0000    -0.1775     1.9090     1.9090    -0.0000
 11 H      0.8231     1.0000     0.1769     0.9150     0.9150    -0.0000

  Mayer bond orders larger than 0.1
B(  0-C ,  1-H ) :   0.8958 B(  0-C ,  2-C ) :   0.4347 B(  0-C ,  6-C ) :   0.1073 
B(  0-C , 10-C ) :   0.4513 B(  2-C ,  3-H ) :   0.8954 B(  2-C ,  4-C ) :   0.4478 
B(  2-C ,  8-C ) :   0.1109 B(  4-C ,  5-H ) :   0.8951 B(  4-C ,  6-C ) :   0.4331 
B(  4-C , 10-C ) :   0.1128 B(  6-C ,  7-H ) :   0.8959 B(  6-C ,  8-C ) :   0.4528 
B(  8-C ,  9-H ) :   0.8953 B(  8-C , 10-C ) :   0.4296 B( 10-C , 11-H ) :   0.8952 


-------
TIMINGS
-------

Total SCF time: 0 days 0 hours 0 min 18 sec 

Total time                  ....      18.253 sec
Sum of individual times     ....      17.943 sec  ( 98.3%)

Fock matrix formation       ....      16.706 sec  ( 91.5%)
  XC integration            ....       2.986 sec  ( 17.9% of F)
    Basis function eval.    ....       1.223 sec  ( 41.0% of XC)
    Density eval.           ....       0.174 sec  (  5.8% of XC)
    XC-Functional eval.     ....       0.937 sec  ( 31.4% of XC)
    XC-Potential eval.      ....       0.131 sec  (  4.4% of XC)
Diagonalization             ....       0.033 sec  (  0.2%)
Density matrix formation    ....       0.002 sec  (  0.0%)
Population analysis         ....       0.013 sec  (  0.1%)
Initial guess               ....       0.251 sec  (  1.4%)
Orbital Transformation      ....       0.000 sec  (  0.0%)
Orbital Orthonormalization  ....       0.000 sec  (  0.0%)
DIIS solution               ....       0.000 sec  (  0.0%)
Grid generation             ....       0.937 sec  (  5.1%)


-------------------------------------------------------------------------------
                          DFT DISPERSION CORRECTION                            
                                                                               
                              DFTD3 V3.1  Rev 1                                
                              USING zero damping                               
-------------------------------------------------------------------------------
The omegaB97X-D3 functional is recognized. Fit by Chai et al.
Active option DFTDOPT                   ...         3   

molecular C6(AA) [au] = 2491.588958 


            DFT-D V3
 parameters
 s6 scaling factor         :     1.0000 
 rs6 scaling factor        :     1.2810 
 s8 scaling factor         :     1.0000 
 rs8 scaling factor        :     1.0940 
 Damping factor alpha6     :    14.0000 
 Damping factor alpha8     :    16.0000 
 ad hoc parameters k1-k3   :    16.0000     1.3333    -4.0000 

 Edisp/kcal,au: -1.267989083770  -0.002020669011 
 E6   /kcal   :  -0.607671429 
 E8   /kcal   :  -0.660317654 
 % E8         :  52.075973117 

-------------------------   ----------------
Dispersion correction           -0.002020669
-------------------------   ----------------


-------------------------   --------------------
FINAL SINGLE POINT ENERGY      -230.424831643715
-------------------------   --------------------


                            ***************************************
                            *     ORCA property calculations      *
                            ***************************************

                                    ---------------------
                                    Active property flags
                                    ---------------------
   (+) Dipole Moment


------------------------------------------------------------------------------
                       ORCA ELECTRIC PROPERTIES CALCULATION
------------------------------------------------------------------------------

Dipole Moment Calculation                       ... on
Quadrupole Moment Calculation                   ... off
Polarizability Calculation                      ... off
GBWName                                         ... Scan_37.gbw
Electron density file                           ... Scan_37.scfp.tmp

-------------
DIPOLE MOMENT
-------------
                                X             Y             Z
Electronic contribution:     -0.00020       0.00026       0.00186
Nuclear contribution   :     -0.00055      -0.00172      -0.00212
                        -----------------------------------------
Total Dipole Moment    :     -0.00074      -0.00146      -0.00027
                        -----------------------------------------
Magnitude (a.u.)       :      0.00166
Magnitude (Debye)      :      0.00422


Timings for individual modules:

Sum of individual times         ...       18.964 sec (=   0.316 min)
GTO integral calculation        ...        0.672 sec (=   0.011 min)   3.5 %
SCF iterations                  ...       18.292 sec (=   0.305 min)  96.5 %
                             ****ORCA TERMINATED NORMALLY****
TOTAL RUN TIME: 0 days 0 hours 0 minutes 19 seconds 336 msec
