
                                 *****************
                                 * O   R   C   A *
                                 *****************

           --- An Ab Initio, DFT and Semiempirical electronic structure package ---

                  #######################################################
                  #                        -***-                        #
                  #  Department of molecular theory and spectroscopy    #
                  #              Directorship: Frank Neese              #
                  # Max Planck Institute for Chemical Energy Conversion #
                  #                  D-45470 Muelheim/Ruhr              #
                  #                       Germany                       #
                  #                                                     #
                  #                  All rights reserved                #
                  #                        -***-                        #
                  #######################################################


                         Program Version 4.0.0.2 - RELEASE -


 With contributions from (in alphabetic order):
   Daniel Aravena         : Magnetic Properties
   Michael Atanasov       : Ab Initio Ligand Field Theory
   Ute Becker             : Parallelization
   Martin Brehm           : Molecular dynamics
   Dmytro Bykov           : SCF Hessian
   Vijay G. Chilkuri      : MRCI spin determinant printing
   Dipayan Datta          : RHF DLPNO-CCSD density
   Achintya Kumar Dutta   : EOM-CC, STEOM-CC
   Dmitry Ganyushin       : Spin-Orbit,Spin-Spin,Magnetic field MRCI
   Yang Guo               : DLPNO-NEVPT2, CIM, IAO-localization
   Andreas Hansen         : Spin unrestricted coupled pair/coupled cluster methods
   Lee Huntington         : MR-EOM, pCC
   Robert Izsak           : Overlap fitted RIJCOSX, COSX-SCS-MP3, EOM
   Christian Kollmar      : KDIIS, OOCD, Brueckner-CCSD(T), CCSD density
   Simone Kossmann        : Meta GGA functionals, TD-DFT gradient, OOMP2, MP2 Hessian
   Martin Krupicka        : AUTO-CI
   Dagmar Lenk            : GEPOL surface
   Dimitrios Liakos       : Extrapolation schemes; parallel MDCI
   Dimitrios Manganas     : ROCIS; embedding schemes
   Dimitrios Pantazis     : SARC Basis sets
   Taras Petrenko         : DFT Hessian,TD-DFT gradient, ASA, ECA, R-Raman, ABS, FL, XAS/XES, NRVS
   Peter Pinski           : DLPNO-MP2
   Christoph Reimann      : Effective Core Potentials
   Marius Retegan         : Local ZFS, SOC
   Christoph Riplinger    : Optimizer, TS searches, QM/MM, DLPNO-CCSD(T), (RO)-DLPNO pert. Triples
   Tobias Risthaus        : Range-separated hybrids, TD-DFT gradient, RPA, STAB
   Michael Roemelt        : Restricted open shell CIS
   Masaaki Saitow         : Open-shell DLPNO
   Barbara Sandhoefer     : DKH picture change effects
   Kantharuban Sivalingam : CASSCF convergence, NEVPT2, FIC-MRCI
   Georgi Stoychev        : AutoAux
   Boris Wezisla          : Elementary symmetry handling
   Frank Wennmohs         : Technical directorship


 We gratefully acknowledge several colleagues who have allowed us to
 interface, adapt or use parts of their codes:
   Stefan Grimme, W. Hujo, H. Kruse,             : VdW corrections, initial TS optimization,
                  C. Bannwarth                     DFT functionals, gCP, sTDA/sTD-DF
   Ed Valeev                                     : LibInt (2-el integral package), F12 methods
   Garnet Chan, S. Sharma, J. Yang, R. Olivares  : DMRG
   Ulf Ekstrom                                   : XCFun DFT Library
   Mihaly Kallay                                 : mrcc  (arbitrary order and MRCC methods)
   Jiri Pittner, Ondrej Demel                    : Mk-CCSD
   Frank Weinhold                                : gennbo (NPA and NBO analysis)
   Christopher J. Cramer and Donald G. Truhlar   : smd solvation model


 Your calculation uses the libint2 library for the computation of 2-el integrals
 For citations please refer to: http://libint.valeyev.net

 This ORCA versions uses:
   CBLAS   interface :  Fast vector & matrix operations
   LAPACKE interface :  Fast linear algebra routines
   SCALAPACK package :  Parallel linear algebra routines


Your calculation utilizes the atom-pairwise dispersion correction
with the zero-damping scheme (D30)
Cite in your paper:
S.Grimme, J.Antony, S.Ehrlich and H.Krieg, J.Chem.Phys., 132, (2010), 154104 
   

XCFun DFT library Copyright 2009-2010 Ulf Ekstrom and contributors.
See http://admol.org/xcfun for more information. This is free soft-
ware; see the source code for copying conditions. There is ABSOLUTELY
NO WARRANTY; not even for MERCHANTABILITY or FITNESS FOR A PARTICULAR
PURPOSE. For details see the documentation. Scientific users of this 
library should cite U. Ekstrom, L. Visscher, R. Bast, A. J. Thorvald-
sen and K. Ruud; J.Chem.Theor.Comp. 2010, DOI: 10.1021/ct100117s
XCFun Version 0.99 
Your calculation utilizes the basis: 6-31G(d)
   H-He, Li-Ne : W. J. Hehre, R. Ditchfield and J.A. Pople, J. Chem. Phys. 56, 2257 (1972).
                 Note: He and Ne are unpublished basis sets taken from the Gaussian program.
                 Note: Li and B from J. D. Dill and J. A. Pople, J. Chem. Phys. 62, 2921 (1975).
   Na - Ar     : M. M. Francl, W. J. Pietro, W. J. Hehre, J. S. Binkley, M. S. Gordon, 
                 D. J. DeFrees and J. A. Pople, J. Chem. Phys. 77, 3654 (1982).
   K - Zn      : V. A. Rassolov, J. A. Pople, M. A. Ratner, and T. L. Windus, J. Chem. Phys. 109, 1223 (1998).

================================================================================
                                        WARNINGS
                       Please study these warnings very carefully!
================================================================================

Warning: TCutStore was < 0. Adjusted to Thresh (uncritical)

INFO   : the flag for use of LIBINT has been found!

================================================================================
                                       INPUT FILE
================================================================================
NAME = initial38.inp
|  1> ! WB97X-D3 6-31G(d) VerySlowConv
|  2> ! KDIIS NOSOSCF
|  3> %base "Scan_38"
|  4> 
|  5> %scf
|  6> maxiter 999
|  7> end
|  8> 
|  9> * xyz 0 1
| 10> C          4.438239319443   -2.508656922969    0.128416039500
| 11> H          4.341292757615   -3.616086463149    0.103878812697
| 12> C          2.076732479521    1.060424523943   -0.047228209207
| 13> H          3.000892730250    0.444170581135    0.003474393241
| 14> C         -2.199082346437    0.809862257903   -0.071934798276
| 15> H         -1.195017063977    1.286773195834   -0.098394771047
| 16> C         -4.188466218300   -2.978317144218    0.122774428313
| 17> H         -4.093161752289   -1.870756819182    0.094771095288
| 18> C         -1.811811953594   -6.538480758643   -0.028016266626
| 19> H         -2.735522187633   -5.922192169773    0.028273218772
| 20> C          2.464237780625   -6.302788179517   -0.103645777436
| 21> H          1.460276454785   -6.780062101348   -0.132368165158
| 22> **                         ****END OF INPUT****
================================================================================

                       ****************************
                       * Single Point Calculation *
                       ****************************

---------------------------------
CARTESIAN COORDINATES (ANGSTROEM)
---------------------------------
  C      4.438239   -2.508657    0.128416
  H      4.341293   -3.616086    0.103879
  C      2.076732    1.060425   -0.047228
  H      3.000893    0.444171    0.003474
  C     -2.199082    0.809862   -0.071935
  H     -1.195017    1.286773   -0.098395
  C     -4.188466   -2.978317    0.122774
  H     -4.093162   -1.870757    0.094771
  C     -1.811812   -6.538481   -0.028016
  H     -2.735522   -5.922192    0.028273
  C      2.464238   -6.302788   -0.103646
  H      1.460276   -6.780062   -0.132368

----------------------------
CARTESIAN COORDINATES (A.U.)
----------------------------
  NO LB      ZA    FRAG     MASS         X           Y           Z
   0 C     6.0000    0    12.011    8.387057   -4.740675    0.242671
   1 H     1.0000    0     1.008    8.203854   -6.833413    0.196303
   2 C     6.0000    0    12.011    3.924456    2.003912   -0.089248
   3 H     1.0000    0     1.008    5.670865    0.839361    0.006566
   4 C     6.0000    0    12.011   -4.155663    1.530418   -0.135937
   5 H     1.0000    0     1.008   -2.258255    2.431649   -0.185939
   6 C     6.0000    0    12.011   -7.915054   -5.628204    0.232010
   7 H     1.0000    0     1.008   -7.734955   -3.535218    0.179091
   8 C     6.0000    0    12.011   -3.423828  -12.355938   -0.052943
   9 H     1.0000    0     1.008   -5.169388  -11.191321    0.053429
  10 C     6.0000    0    12.011    4.656735  -11.910544   -0.195862
  11 H     1.0000    0     1.008    2.759523  -12.812461   -0.250140

--------------------------------
INTERNAL COORDINATES (ANGSTROEM)
--------------------------------
 C      0   0   0     0.000000000000     0.00000000     0.00000000
 H      1   0   0     1.111935653630     0.00000000     0.00000000
 C      1   2   0     4.283212326256   141.34493950     0.00000000
 H      3   1   2     1.111940576177    22.79255063   183.81842056
 C      3   1   2     4.283221251650   120.12433150     5.95412810
 H      5   3   1     1.111886354048    22.11635977   181.91381000
 C      5   3   1     4.283207099266   121.00638381     0.71367940
 H      7   5   3     1.112005845981    22.80317987   175.57104373
 C      7   5   3     4.283221718415   118.41183789   354.33787517
 H      9   7   5     1.111854634116    22.55946694   181.35018225
 C      2   1   3     3.284017045462   150.00022097   359.70789850
 H     11   2   1     1.112004368606   150.32025494   352.87456780

---------------------------
INTERNAL COORDINATES (A.U.)
---------------------------
 C      0   0   0     0.000000000000     0.00000000     0.00000000
 H      1   0   0     2.101253863903     0.00000000     0.00000000
 C      1   2   0     8.094098270060   141.34493950     0.00000000
 H      3   1   2     2.101263166169    22.79255063   183.81842056
 C      3   1   2     8.094115136610   120.12433150     5.95412810
 H      5   3   1     2.101160701195    22.11635977   181.91381000
 C      5   3   1     8.094088392480   121.00638381     0.71367940
 H      7   5   3     2.101386508224    22.80317987   175.57104373
 C      7   5   3     8.094116018668   118.41183789   354.33787517
 H      9   7   5     2.101100759211    22.55946694   181.35018225
 C      2   1   3     6.205892835053   150.00022097   359.70789850
 H     11   2   1     2.101383716389   150.32025494   352.87456780

---------------------
BASIS SET INFORMATION
---------------------
There are 2 groups of distinct atoms

 Group   1 Type C   : 10s4p1d contracted to 3s2p1d pattern {631/31/1}
 Group   2 Type H   : 4s contracted to 2s pattern {31}

Atom   0C    basis set group =>   1
Atom   1H    basis set group =>   2
Atom   2C    basis set group =>   1
Atom   3H    basis set group =>   2
Atom   4C    basis set group =>   1
Atom   5H    basis set group =>   2
Atom   6C    basis set group =>   1
Atom   7H    basis set group =>   2
Atom   8C    basis set group =>   1
Atom   9H    basis set group =>   2
Atom  10C    basis set group =>   1
Atom  11H    basis set group =>   2
------------------------------------------------------------------------------
                           ORCA GTO INTEGRAL CALCULATION
------------------------------------------------------------------------------

                         BASIS SET STATISTICS AND STARTUP INFO

 # of primitive gaussian shells          ...  114
 # of primitive gaussian functions       ...  186
 # of contracted shells                  ...   48
 # of contracted basis functions         ...   96
 Highest angular momentum                ...    2
 Maximum contraction depth               ...    6
 Integral package used                   ... LIBINT
 Integral threshhold            Thresh   ...  1.000e-10
 Primitive cut-off              TCut     ...  1.000e-11


------------------------------ INTEGRAL EVALUATION ----------------------------


 * One electron integrals 
 Pre-screening matrix                    ... done
 Shell pair data                         ... done (   0.000 sec)

-------------------------------------------------------------------------------
                                 ORCA SCF
-------------------------------------------------------------------------------

------------
SCF SETTINGS
------------
Hamiltonian:
 Density Functional     Method          .... DFT(GTOs)
 Exchange Functional    Exchange        .... WB97X-D3
 Correlation Functional Correlation     .... WB97X-D3
 Gradients option       PostSCFGGA      .... off
 Hybrid DFT is turned on
   Fraction HF Exchange ScalHFX         ....  0.195728
   Scaling of DF-GGA-X  ScalDFX         ....  0.000000
   Scaling of DF-GGA-C  ScalDFC         ....  1.000000
   Scaling of DF-LDA-C  ScalLDAC        ....  1.000000
   Perturbative correction              ....  0.000000
 Long-range corrected/Screened/Range-Separated Hybrid DFT is turned on
   Amount of maximum screened exact exchange              ....  0.804272
   Range separation parameter mu (erf(mu*r12)/r12)        ....  0.250000


General Settings:
 Integral files         IntName         .... Scan_38
 Hartree-Fock type      HFTyp           .... RHF
 Total Charge           Charge          ....    0
 Multiplicity           Mult            ....    1
 Number of Electrons    NEL             ....   42
 Basis Dimension        Dim             ....   96
 Nuclear Repulsion      ENuc            ....     84.1814364069 Eh

Convergence Acceleration:
 DIIS                   CNVDIIS         .... on
   Start iteration      DIISMaxIt       ....     0
   Startup error        DIISStart       ....  0.200000
   # of expansion vecs  DIISMaxEq       ....     5
   Bias factor          DIISBfac        ....   1.050
   Max. coefficient     DIISMaxC        ....  10.000
 Newton-Raphson         CNVNR           .... off
 SOSCF                  CNVSOSCF        .... off
 Level Shifting         CNVShift        .... off
 Zerner damping         CNVZerner       .... off
 Static damping         CNVDamp         .... off
 Fernandez-Rico         CNVRico         .... off

SCF Procedure:
 Maximum # iterations   MaxIter         ....   999
 SCF integral mode      SCFMode         .... Direct
   Integral package                     .... LIBINT
 Reset frequeny         DirectResetFreq ....    20
 Integral Threshold     Thresh          ....  1.000e-10 Eh
 Primitive CutOff       TCut            ....  1.000e-11 Eh

Convergence Tolerance:
 Convergence Check Mode ConvCheckMode   .... All-Criteria
 Convergence forced     ConvForced      .... 0
 Energy Change          TolE            ....  1.000e-06 Eh
 Max Density Change     TolMaxP         ....  1.000e-05
 RMS Density Change     TolRMSP         ....  1.000e-06
 DIIS Error             TolErr          ....  1.000e-06


Diagonalization of the overlap matrix:
Smallest eigenvalue                        ... 3.704e-02
Time for diagonalization                   ...    0.002 sec
Threshold for overlap eigenvalues          ... 1.000e-08
Number of eigenvalues below threshold      ... 0
Time for construction of square roots      ...    0.007 sec
Total time needed                          ...    0.010 sec

-------------------
DFT GRID GENERATION
-------------------

General Integration Accuracy     IntAcc      ...  4.340
Radial Grid Type                 RadialGrid  ... Gauss-Chebyshev
Angular Grid (max. acc.)         AngularGrid ... Lebedev-110
Angular grid pruning method      GridPruning ... 3 (G Style)
Weight generation scheme         WeightScheme... Becke
Basis function cutoff            BFCut       ...    1.0000e-10
Integration weight cutoff        WCut        ...    1.0000e-14
Grids for H and He will be reduced by one unit

# of grid points (after initial pruning)     ...  14700 (   0.0 sec)
# of grid points (after weights+screening)   ...  14380 (   0.0 sec)
nearest neighbour list constructed           ...    0.0 sec
Grid point re-assignment to atoms done       ...    0.0 sec
Grid point division into batches done        ...    0.0 sec
Reduced shell lists constructed in    0.1 sec

Total number of grid points                  ...    14380
Total number of batches                      ...      230
Average number of points per batch           ...       62
Average number of grid points per atom       ...     1198
Average number of shells per batch           ...    17.99 (37.47%)
Average number of basis functions per batch  ...    34.58 (36.02%)
Average number of large shells per batch     ...    12.44 (69.15%)
Average number of large basis fcns per batch ...    24.40 (70.58%)
Maximum spatial batch extension              ...  20.05, 21.27, 31.36 au
Average spatial batch extension              ...   4.79,  4.99,  6.34 au

Time for grid setup =    0.207 sec

------------------------------
INITIAL GUESS: MODEL POTENTIAL
------------------------------
Loading Hartree-Fock densities                     ... done
Calculating cut-offs                               ... done
Setting up the integral package                    ... done
Initializing the effective Hamiltonian             ... done
Starting the Coulomb interaction                   ... done (   0.0 sec)
Reading the grid                                   ... done
Mapping shells                                     ... done
Starting the XC term evaluation                    ... done (   0.1 sec)
  promolecular density results
     # of electrons  =     41.993672034
     EX              =    -31.543928669
     EC              =     -1.140330130
     EX+EC           =    -32.684258798
Transforming the Hamiltonian                       ... done (   0.0 sec)
Diagonalizing the Hamiltonian                      ... done (   0.0 sec)
Back transforming the eigenvectors                 ... done (   0.0 sec)
Now organizing SCF variables                       ... done
                      ------------------
                      INITIAL GUESS DONE (   0.5 sec)
                      ------------------
--------------
SCF ITERATIONS
--------------
ITER       Energy         Delta-E        Max-DP      RMS-DP      [F,P]   Gradient Norm
               ***  Starting incremental Fock matrix formation  ***
                             ****Resetting KDIIS****
                             ****Turning on KDIIS(Cayley)****
  0   -230.3936785154   0.000000000000 0.01144913  0.00037976  0.0312914   0.027519466
  1   -230.3988773809  -0.005198865505 0.00973005  0.00046821  0.0266789   0.024066705
  2   -230.4041538143  -0.005276433375 0.01769930  0.00075867  0.0217911   0.019487413
  3   -230.4107468146  -0.006593000315 0.02891205  0.00126612  0.0136560   0.011851912
  4   -230.4148685003  -0.004121685656 0.00157490  0.00007508  0.0005968   0.000405104
  5   -230.4148832099  -0.000014709646 0.00107730  0.00004898  0.0003602   0.000241855
  6   -230.4148898937  -0.000006683777 0.00055274  0.00003993  0.0002150   0.000138770
  7   -230.4148929198  -0.000003026125 0.00035995  0.00001896  0.0001499   0.000122434
  8   -230.4148939401  -0.000001020259 0.00023526  0.00001359  0.0000843   0.000059659
                          ***Energy convergence achieved***
  9   -230.4148944881  -0.000000548018 0.00013847  0.00000654  0.0000676   0.000037243
 10   -230.4148947497  -0.000000261588 0.00023940  0.00001094  0.0000710   0.000032773
 11   -230.4148951817  -0.000000432025 0.00014027  0.00000681  0.0000767   0.000030966

            ***Energy convergence in two consecutive cycles with***
                    ***'reasonable' density convergence***
                       *** signaling convergence ***

                    *** KDIIS BlockDiag ( 0.001 sec) ***

               *****************************************************
               *                     SUCCESS                       *
               *           SCF CONVERGED AFTER  12 CYCLES          *
               *****************************************************

Setting up the final grid:

General Integration Accuracy     IntAcc      ...  4.670
Radial Grid Type                 RadialGrid  ... Gauss-Chebyshev
Angular Grid (max. acc.)         AngularGrid ... Lebedev-302
Angular grid pruning method      GridPruning ... 3 (G Style)
Weight generation scheme         WeightScheme... Becke
Basis function cutoff            BFCut       ...    1.0000e-10
Integration weight cutoff        WCut        ...    1.0000e-14
Grids for H and He will be reduced by one unit

# of grid points (after initial pruning)     ...  57636 (   0.0 sec)
# of grid points (after weights+screening)   ...  56070 (   0.1 sec)
nearest neighbour list constructed           ...    0.0 sec
Grid point re-assignment to atoms done       ...    0.0 sec
Grid point division into batches done        ...    0.2 sec
Reduced shell lists constructed in    0.6 sec

Total number of grid points                  ...    56070
Total number of batches                      ...      882
Average number of points per batch           ...       63
Average number of grid points per atom       ...     4672
Average number of shells per batch           ...    15.18 (31.63%)
Average number of basis functions per batch  ...    29.11 (30.33%)
Average number of large shells per batch     ...    10.75 (70.79%)
Average number of large basis fcns per batch ...    21.07 (72.37%)
Maximum spatial batch extension              ...  20.67, 19.12, 23.09 au
Average spatial batch extension              ...   3.21,  3.24,  3.80 au

Final grid set up in    0.7 sec
Final integration                            ... done (   0.4 sec)
Change in XC energy                          ...     0.000801431
Integrated number of electrons               ...    41.999984792
Previous integrated no of electrons          ...    41.999110852

----------------
TOTAL SCF ENERGY
----------------

Total Energy       :         -230.41409403 Eh           -6269.88625 eV

Components:
Nuclear Repulsion  :           84.18143641 Eh            2290.69334 eV
Electronic Energy  :         -314.59553043 Eh           -8560.57959 eV
One Electron Energy:         -474.11343920 Eh          -12901.28257 eV
Two Electron Energy:          159.51790877 Eh            4340.70297 eV

Virial components:
Potential Energy   :         -459.79658412 Eh          -12511.70114 eV
Kinetic Energy     :          229.38249010 Eh            6241.81488 eV
Virial Ratio       :            2.00449731


DFT components:
N(Alpha)           :       20.999992395778 electrons
N(Beta)            :       20.999992395778 electrons
N(Total)           :       41.999984791556 electrons
E(XC)              :      -22.775600814577 Eh       

---------------
SCF CONVERGENCE
---------------

  Last Energy change         ...   -2.7497e-07  Tolerance :   1.0000e-06
  Last MAX-Density change    ...    2.9292e-05  Tolerance :   1.0000e-05
  Last RMS-Density change    ...    1.5218e-06  Tolerance :   1.0000e-06
  Last DIIS Error            ...    8.1574e-05  Tolerance :   1.0000e-06

             **** THE GBW FILE WAS UPDATED (Scan_38.gbw) ****
             **** DENSITY FILE WAS UPDATED (Scan_38.scfp.tmp) ****
             **** ENERGY FILE WAS UPDATED (Scan_38.en.tmp) ****
----------------
ORBITAL ENERGIES
----------------

  NO   OCC          E(Eh)            E(eV) 
   0   2.0000     -10.392935      -282.8062 
   1   2.0000     -10.392932      -282.8061 
   2   2.0000     -10.392769      -282.8016 
   3   2.0000     -10.392761      -282.8014 
   4   2.0000     -10.392727      -282.8005 
   5   2.0000     -10.392724      -282.8004 
   6   2.0000      -0.739556       -20.1243 
   7   2.0000      -0.738390       -20.0926 
   8   2.0000      -0.738199       -20.0874 
   9   2.0000      -0.735554       -20.0154 
  10   2.0000      -0.735384       -20.0108 
  11   2.0000      -0.734224       -19.9792 
  12   2.0000      -0.413611       -11.2549 
  13   2.0000      -0.408686       -11.1209 
  14   2.0000      -0.408607       -11.1188 
  15   2.0000      -0.398284       -10.8379 
  16   2.0000      -0.398049       -10.8315 
  17   2.0000      -0.392469       -10.6796 
  18   2.0000      -0.238294        -6.4843 
  19   2.0000      -0.216237        -5.8841 
  20   2.0000      -0.216031        -5.8785 
  21   0.0000      -0.109805        -2.9880 
  22   0.0000      -0.109549        -2.9810 
  23   0.0000      -0.087936        -2.3929 
  24   0.0000      -0.032228        -0.8770 
  25   0.0000      -0.031442        -0.8556 
  26   0.0000      -0.031310        -0.8520 
  27   0.0000      -0.029746        -0.8094 
  28   0.0000      -0.029604        -0.8056 
  29   0.0000      -0.028833        -0.7846 
  30   0.0000       0.189475         5.1559 
  31   0.0000       0.209254         5.6941 
  32   0.0000       0.209808         5.7092 
  33   0.0000       0.256000         6.9661 
  34   0.0000       0.256640         6.9835 
  35   0.0000       0.284204         7.7336 
  36   0.0000       0.625194        17.0124 
  37   0.0000       0.631113        17.1735 
  38   0.0000       0.631555        17.1855 
  39   0.0000       0.642429        17.4814 
  40   0.0000       0.642483        17.4828 
  41   0.0000       0.646430        17.5902 
  42   0.0000       0.648391        17.6436 
  43   0.0000       0.651199        17.7200 
  44   0.0000       0.651345        17.7240 
  45   0.0000       0.661202        17.9922 
  46   0.0000       0.661270        17.9941 
  47   0.0000       0.666349        18.1323 
  48   0.0000       0.679320        18.4852 
  49   0.0000       0.683192        18.5906 
  50   0.0000       0.683877        18.6092 
  51   0.0000       0.689777        18.7698 
  52   0.0000       0.690691        18.7947 
  53   0.0000       0.693836        18.8802 
  54   0.0000       0.745987        20.2993 
  55   0.0000       0.747798        20.3486 
  56   0.0000       0.748097        20.3567 
  57   0.0000       0.753515        20.5042 
  58   0.0000       0.754262        20.5245 
  59   0.0000       0.757885        20.6231 
  60   0.0000       1.026472        27.9317 
  61   0.0000       1.040356        28.3095 
  62   0.0000       1.041199        28.3325 
  63   0.0000       1.076018        29.2799 
  64   0.0000       1.078148        29.3379 
  65   0.0000       1.101426        29.9713 
  66   0.0000       1.753420        47.7130 
  67   0.0000       1.753441        47.7135 
  68   0.0000       1.753449        47.7138 
  69   0.0000       1.753464        47.7142 
  70   0.0000       1.753766        47.7224 
  71   0.0000       1.753789        47.7230 
  72   0.0000       1.767950        48.1084 
  73   0.0000       1.768113        48.1128 
  74   0.0000       1.768242        48.1163 
  75   0.0000       1.768351        48.1193 
  76   0.0000       1.768805        48.1316 
  77   0.0000       1.768885        48.1338 
  78   0.0000       1.778663        48.3999 
  79   0.0000       1.778745        48.4021 
  80   0.0000       1.778971        48.4083 
  81   0.0000       1.779231        48.4154 
  82   0.0000       1.779403        48.4200 
  83   0.0000       1.779502        48.4227 
  84   0.0000       1.782596        48.5069 
  85   0.0000       1.782605        48.5071 
  86   0.0000       1.783341        48.5272 
  87   0.0000       1.783532        48.5324 
  88   0.0000       1.783923        48.5430 
  89   0.0000       1.783963        48.5441 
  90   0.0000       2.208044        60.0839 
  91   0.0000       2.208100        60.0854 
  92   0.0000       2.208205        60.0883 
  93   0.0000       2.208458        60.0952 
  94   0.0000       2.208721        60.1024 
  95   0.0000       2.208953        60.1087 

                    ********************************
                    * MULLIKEN POPULATION ANALYSIS *
                    ********************************

-----------------------
MULLIKEN ATOMIC CHARGES
-----------------------
   0 C :   -0.173597
   1 H :    0.174443
   2 C :   -0.175090
   3 H :    0.174783
   4 C :   -0.175349
   5 H :    0.174803
   6 C :   -0.173630
   7 H :    0.174451
   8 C :   -0.175066
   9 H :    0.174846
  10 C :   -0.175365
  11 H :    0.174771
Sum of atomic charges:   -0.0000000

--------------------------------
MULLIKEN REDUCED ORBITAL CHARGES
--------------------------------
  0 C s       :     3.918455  s :     3.918455
      pz      :     0.006182  p :     2.240784
      px      :     0.989385
      py      :     1.245217
      dz2     :     0.003554  d :     0.014358
      dxz     :     0.000001
      dyz     :     0.000023
      dx2y2   :     0.009935
      dxy     :     0.000844
  1 H s       :     0.825557  s :     0.825557
  2 C s       :     3.918940  s :     3.918940
      pz      :     0.003081  p :     2.241861
      px      :     1.190292
      py      :     1.048488
      dz2     :     0.003493  d :     0.014290
      dxz     :     0.000058
      dyz     :     0.000030
      dx2y2   :     0.001929
      dxy     :     0.008780
  3 H s       :     0.825217  s :     0.825217
  4 C s       :     3.919187  s :     3.919187
      pz      :     0.003048  p :     2.241838
      px      :     1.180902
      py      :     1.057888
      dz2     :     0.003534  d :     0.014324
      dxz     :     0.000019
      dyz     :     0.000005
      dx2y2   :     0.004467
      dxy     :     0.006299
  5 H s       :     0.825197  s :     0.825197
  6 C s       :     3.918433  s :     3.918433
      pz      :     0.004816  p :     2.240841
      px      :     0.991036
      py      :     1.244990
      dz2     :     0.003549  d :     0.014356
      dxz     :     0.000001
      dyz     :     0.000028
      dx2y2   :     0.009941
      dxy     :     0.000836
  7 H s       :     0.825549  s :     0.825549
  8 C s       :     3.918926  s :     3.918926
      pz      :     0.003273  p :     2.241849
      px      :     1.189150
      py      :     1.049426
      dz2     :     0.003484  d :     0.014290
      dxz     :     0.000072
      dyz     :     0.000036
      dx2y2   :     0.001920
      dxy     :     0.008779
  9 H s       :     0.825154  s :     0.825154
 10 C s       :     3.919215  s :     3.919215
      pz      :     0.004535  p :     2.241827
      px      :     1.180537
      py      :     1.056755
      dz2     :     0.003531  d :     0.014324
      dxz     :     0.000022
      dyz     :     0.000006
      dx2y2   :     0.004458
      dxy     :     0.006306
 11 H s       :     0.825229  s :     0.825229


                     *******************************
                     * LOEWDIN POPULATION ANALYSIS *
                     *******************************

----------------------
LOEWDIN ATOMIC CHARGES
----------------------
   0 C :   -0.118070
   1 H :    0.118893
   2 C :   -0.119367
   3 H :    0.119018
   4 C :   -0.119520
   5 H :    0.119074
   6 C :   -0.118172
   7 H :    0.118904
   8 C :   -0.119237
   9 H :    0.119044
  10 C :   -0.119637
  11 H :    0.119068

-------------------------------
LOEWDIN REDUCED ORBITAL CHARGES
-------------------------------
  0 C s       :     3.750512  s :     3.750512
      pz      :     0.006247  p :     2.348240
      px      :     0.991257
      py      :     1.350736
      dz2     :     0.004810  d :     0.019317
      dxz     :     0.000002
      dyz     :     0.000030
      dx2y2   :     0.013513
      dxy     :     0.000963
  1 H s       :     0.881107  s :     0.881107
  2 C s       :     3.750606  s :     3.750606
      pz      :     0.003309  p :     2.349519
      px      :     1.261274
      py      :     1.084936
      dz2     :     0.004736  d :     0.019242
      dxz     :     0.000080
      dyz     :     0.000040
      dx2y2   :     0.002456
      dxy     :     0.011931
  3 H s       :     0.880982  s :     0.880982
  4 C s       :     3.750651  s :     3.750651
      pz      :     0.003104  p :     2.349584
      px      :     1.270930
      py      :     1.075550
      dz2     :     0.004793  d :     0.019286
      dxz     :     0.000025
      dyz     :     0.000007
      dx2y2   :     0.005962
      dxy     :     0.008499
  5 H s       :     0.880926  s :     0.880926
  6 C s       :     3.750535  s :     3.750535
      pz      :     0.004894  p :     2.348321
      px      :     0.992872
      py      :     1.350556
      dz2     :     0.004804  d :     0.019316
      dxz     :     0.000002
      dyz     :     0.000038
      dx2y2   :     0.013521
      dxy     :     0.000951
  7 H s       :     0.881096  s :     0.881096
  8 C s       :     3.750559  s :     3.750559
      pz      :     0.003550  p :     2.349436
      px      :     1.259968
      py      :     1.085918
      dz2     :     0.004723  d :     0.019242
      dxz     :     0.000099
      dyz     :     0.000048
      dx2y2   :     0.002445
      dxy     :     0.011927
  9 H s       :     0.880956  s :     0.880956
 10 C s       :     3.750724  s :     3.750724
      pz      :     0.004601  p :     2.349628
      px      :     1.270488
      py      :     1.074538
      dz2     :     0.004789  d :     0.019285
      dxz     :     0.000030
      dyz     :     0.000008
      dx2y2   :     0.005950
      dxy     :     0.008508
 11 H s       :     0.880932  s :     0.880932


                      *****************************
                      * MAYER POPULATION ANALYSIS *
                      *****************************

  NA   - Mulliken gross atomic population
  ZA   - Total nuclear charge
  QA   - Mulliken gross atomic charge
  VA   - Mayer's total valence
  BVA  - Mayer's bonded valence
  FA   - Mayer's free valence

  ATOM       NA         ZA         QA         VA         BVA        FA
  0 C      6.1736     6.0000    -0.1736     1.9084     1.9084     0.0000
  1 H      0.8256     1.0000     0.1744     0.9135     0.9135     0.0000
  2 C      6.1751     6.0000    -0.1751     1.9079     1.9079     0.0000
  3 H      0.8252     1.0000     0.1748     0.9134     0.9134    -0.0000
  4 C      6.1753     6.0000    -0.1753     1.9079     1.9079    -0.0000
  5 H      0.8252     1.0000     0.1748     0.9132     0.9132    -0.0000
  6 C      6.1736     6.0000    -0.1736     1.9085     1.9085    -0.0000
  7 H      0.8255     1.0000     0.1745     0.9134     0.9134    -0.0000
  8 C      6.1751     6.0000    -0.1751     1.9078     1.9078    -0.0000
  9 H      0.8252     1.0000     0.1748     0.9135     0.9135     0.0000
 10 C      6.1754     6.0000    -0.1754     1.9081     1.9081     0.0000
 11 H      0.8252     1.0000     0.1748     0.9131     0.9131     0.0000

  Mayer bond orders larger than 0.1
B(  0-C ,  1-H ) :   0.8980 B(  0-C ,  2-C ) :   0.4519 B(  0-C ,  6-C ) :   0.1072 
B(  0-C , 10-C ) :   0.4356 B(  2-C ,  3-H ) :   0.8976 B(  2-C ,  4-C ) :   0.4316 
B(  2-C ,  8-C ) :   0.1113 B(  4-C ,  5-H ) :   0.8975 B(  4-C ,  6-C ) :   0.4503 
B(  4-C , 10-C ) :   0.1131 B(  6-C ,  7-H ) :   0.8980 B(  6-C ,  8-C ) :   0.4372 
B(  8-C ,  9-H ) :   0.8975 B(  8-C , 10-C ) :   0.4462 B( 10-C , 11-H ) :   0.8975 


-------
TIMINGS
-------

Total SCF time: 0 days 0 hours 0 min 13 sec 

Total time                  ....      13.439 sec
Sum of individual times     ....      13.183 sec  ( 98.1%)

Fock matrix formation       ....      11.954 sec  ( 88.9%)
  XC integration            ....       2.247 sec  ( 18.8% of F)
    Basis function eval.    ....       0.909 sec  ( 40.4% of XC)
    Density eval.           ....       0.129 sec  (  5.7% of XC)
    XC-Functional eval.     ....       0.734 sec  ( 32.7% of XC)
    XC-Potential eval.      ....       0.098 sec  (  4.3% of XC)
Diagonalization             ....       0.027 sec  (  0.2%)
Density matrix formation    ....       0.002 sec  (  0.0%)
Population analysis         ....       0.013 sec  (  0.1%)
Initial guess               ....       0.249 sec  (  1.8%)
Orbital Transformation      ....       0.000 sec  (  0.0%)
Orbital Orthonormalization  ....       0.000 sec  (  0.0%)
DIIS solution               ....       0.000 sec  (  0.0%)
Grid generation             ....       0.939 sec  (  7.0%)


-------------------------------------------------------------------------------
                          DFT DISPERSION CORRECTION                            
                                                                               
                              DFTD3 V3.1  Rev 1                                
                              USING zero damping                               
-------------------------------------------------------------------------------
The omegaB97X-D3 functional is recognized. Fit by Chai et al.
Active option DFTDOPT                   ...         3   

molecular C6(AA) [au] = 2491.577512 


            DFT-D V3
 parameters
 s6 scaling factor         :     1.0000 
 rs6 scaling factor        :     1.2810 
 s8 scaling factor         :     1.0000 
 rs8 scaling factor        :     1.0940 
 Damping factor alpha6     :    14.0000 
 Damping factor alpha8     :    16.0000 
 ad hoc parameters k1-k3   :    16.0000     1.3333    -4.0000 

 Edisp/kcal,au: -1.188377980534  -0.001893800656 
 E6   /kcal   :  -0.624680021 
 E8   /kcal   :  -0.563697959 
 % E8         :  47.434231236 

-------------------------   ----------------
Dispersion correction           -0.001893801
-------------------------   ----------------


-------------------------   --------------------
FINAL SINGLE POINT ENERGY      -230.415987826178
-------------------------   --------------------


                            ***************************************
                            *     ORCA property calculations      *
                            ***************************************

                                    ---------------------
                                    Active property flags
                                    ---------------------
   (+) Dipole Moment


------------------------------------------------------------------------------
                       ORCA ELECTRIC PROPERTIES CALCULATION
------------------------------------------------------------------------------

Dipole Moment Calculation                       ... on
Quadrupole Moment Calculation                   ... off
Polarizability Calculation                      ... off
GBWName                                         ... Scan_38.gbw
Electron density file                           ... Scan_38.scfp.tmp

-------------
DIPOLE MOMENT
-------------
                                X             Y             Z
Electronic contribution:      0.00000       0.00007       0.00145
Nuclear contribution   :     -0.00094      -0.00017      -0.00063
                        -----------------------------------------
Total Dipole Moment    :     -0.00094      -0.00010       0.00081
                        -----------------------------------------
Magnitude (a.u.)       :      0.00125
Magnitude (Debye)      :      0.00317


Timings for individual modules:

Sum of individual times         ...       14.148 sec (=   0.236 min)
GTO integral calculation        ...        0.672 sec (=   0.011 min)   4.7 %
SCF iterations                  ...       13.476 sec (=   0.225 min)  95.3 %
                             ****ORCA TERMINATED NORMALLY****
TOTAL RUN TIME: 0 days 0 hours 0 minutes 14 seconds 540 msec
