
                                 *****************
                                 * O   R   C   A *
                                 *****************

           --- An Ab Initio, DFT and Semiempirical electronic structure package ---

                  #######################################################
                  #                        -***-                        #
                  #  Department of molecular theory and spectroscopy    #
                  #              Directorship: Frank Neese              #
                  # Max Planck Institute for Chemical Energy Conversion #
                  #                  D-45470 Muelheim/Ruhr              #
                  #                       Germany                       #
                  #                                                     #
                  #                  All rights reserved                #
                  #                        -***-                        #
                  #######################################################


                         Program Version 4.0.0.2 - RELEASE -


 With contributions from (in alphabetic order):
   Daniel Aravena         : Magnetic Properties
   Michael Atanasov       : Ab Initio Ligand Field Theory
   Ute Becker             : Parallelization
   Martin Brehm           : Molecular dynamics
   Dmytro Bykov           : SCF Hessian
   Vijay G. Chilkuri      : MRCI spin determinant printing
   Dipayan Datta          : RHF DLPNO-CCSD density
   Achintya Kumar Dutta   : EOM-CC, STEOM-CC
   Dmitry Ganyushin       : Spin-Orbit,Spin-Spin,Magnetic field MRCI
   Yang Guo               : DLPNO-NEVPT2, CIM, IAO-localization
   Andreas Hansen         : Spin unrestricted coupled pair/coupled cluster methods
   Lee Huntington         : MR-EOM, pCC
   Robert Izsak           : Overlap fitted RIJCOSX, COSX-SCS-MP3, EOM
   Christian Kollmar      : KDIIS, OOCD, Brueckner-CCSD(T), CCSD density
   Simone Kossmann        : Meta GGA functionals, TD-DFT gradient, OOMP2, MP2 Hessian
   Martin Krupicka        : AUTO-CI
   Dagmar Lenk            : GEPOL surface
   Dimitrios Liakos       : Extrapolation schemes; parallel MDCI
   Dimitrios Manganas     : ROCIS; embedding schemes
   Dimitrios Pantazis     : SARC Basis sets
   Taras Petrenko         : DFT Hessian,TD-DFT gradient, ASA, ECA, R-Raman, ABS, FL, XAS/XES, NRVS
   Peter Pinski           : DLPNO-MP2
   Christoph Reimann      : Effective Core Potentials
   Marius Retegan         : Local ZFS, SOC
   Christoph Riplinger    : Optimizer, TS searches, QM/MM, DLPNO-CCSD(T), (RO)-DLPNO pert. Triples
   Tobias Risthaus        : Range-separated hybrids, TD-DFT gradient, RPA, STAB
   Michael Roemelt        : Restricted open shell CIS
   Masaaki Saitow         : Open-shell DLPNO
   Barbara Sandhoefer     : DKH picture change effects
   Kantharuban Sivalingam : CASSCF convergence, NEVPT2, FIC-MRCI
   Georgi Stoychev        : AutoAux
   Boris Wezisla          : Elementary symmetry handling
   Frank Wennmohs         : Technical directorship


 We gratefully acknowledge several colleagues who have allowed us to
 interface, adapt or use parts of their codes:
   Stefan Grimme, W. Hujo, H. Kruse,             : VdW corrections, initial TS optimization,
                  C. Bannwarth                     DFT functionals, gCP, sTDA/sTD-DF
   Ed Valeev                                     : LibInt (2-el integral package), F12 methods
   Garnet Chan, S. Sharma, J. Yang, R. Olivares  : DMRG
   Ulf Ekstrom                                   : XCFun DFT Library
   Mihaly Kallay                                 : mrcc  (arbitrary order and MRCC methods)
   Jiri Pittner, Ondrej Demel                    : Mk-CCSD
   Frank Weinhold                                : gennbo (NPA and NBO analysis)
   Christopher J. Cramer and Donald G. Truhlar   : smd solvation model


 Your calculation uses the libint2 library for the computation of 2-el integrals
 For citations please refer to: http://libint.valeyev.net

 This ORCA versions uses:
   CBLAS   interface :  Fast vector & matrix operations
   LAPACKE interface :  Fast linear algebra routines
   SCALAPACK package :  Parallel linear algebra routines


Your calculation utilizes the atom-pairwise dispersion correction
with the zero-damping scheme (D30)
Cite in your paper:
S.Grimme, J.Antony, S.Ehrlich and H.Krieg, J.Chem.Phys., 132, (2010), 154104 
   

XCFun DFT library Copyright 2009-2010 Ulf Ekstrom and contributors.
See http://admol.org/xcfun for more information. This is free soft-
ware; see the source code for copying conditions. There is ABSOLUTELY
NO WARRANTY; not even for MERCHANTABILITY or FITNESS FOR A PARTICULAR
PURPOSE. For details see the documentation. Scientific users of this 
library should cite U. Ekstrom, L. Visscher, R. Bast, A. J. Thorvald-
sen and K. Ruud; J.Chem.Theor.Comp. 2010, DOI: 10.1021/ct100117s
XCFun Version 0.99 
Your calculation utilizes the basis: 6-31G(d)
   H-He, Li-Ne : W. J. Hehre, R. Ditchfield and J.A. Pople, J. Chem. Phys. 56, 2257 (1972).
                 Note: He and Ne are unpublished basis sets taken from the Gaussian program.
                 Note: Li and B from J. D. Dill and J. A. Pople, J. Chem. Phys. 62, 2921 (1975).
   Na - Ar     : M. M. Francl, W. J. Pietro, W. J. Hehre, J. S. Binkley, M. S. Gordon, 
                 D. J. DeFrees and J. A. Pople, J. Chem. Phys. 77, 3654 (1982).
   K - Zn      : V. A. Rassolov, J. A. Pople, M. A. Ratner, and T. L. Windus, J. Chem. Phys. 109, 1223 (1998).

================================================================================
                                        WARNINGS
                       Please study these warnings very carefully!
================================================================================

Warning: TCutStore was < 0. Adjusted to Thresh (uncritical)

INFO   : the flag for use of LIBINT has been found!

================================================================================
                                       INPUT FILE
================================================================================
NAME = initial4.inp
|  1> ! WB97X-D3 6-31G(d) VerySlowConv
|  2> ! KDIIS NOSOSCF
|  3> %base "Scan_4"
|  4> 
|  5> %scf
|  6> maxiter 999
|  7> end
|  8> 
|  9> * xyz 0 1
| 10> C          1.316265560588   -2.833833803653   -0.000000000000
| 11> H          2.419509241534   -2.918293746141    0.000000000000
| 12> C          0.801731304889   -1.760985060898   -0.000000000000
| 13> H          1.426497603376   -0.847777978886   -0.000000000000
| 14> C         -0.384650089129   -1.670160422703   -0.000000000000
| 15> H         -0.863127472039   -0.672493396488   -0.000000000000
| 16> C         -1.056497227259   -2.652184529681   -0.000000000000
| 17> H         -2.159740908201   -2.567724587173   -0.000000000000
| 18> C         -0.541962971552   -3.725033272431   -0.000000000000
| 19> H         -1.166729270026   -4.638240354455   -0.000000000000
| 20> C          0.644418422466   -3.815857910634   -0.000000000000
| 21> H          1.122895805353   -4.813524936858    0.000000000000
| 22> **                         ****END OF INPUT****
================================================================================

                       ****************************
                       * Single Point Calculation *
                       ****************************

---------------------------------
CARTESIAN COORDINATES (ANGSTROEM)
---------------------------------
  C      1.316266   -2.833834   -0.000000
  H      2.419509   -2.918294    0.000000
  C      0.801731   -1.760985   -0.000000
  H      1.426498   -0.847778   -0.000000
  C     -0.384650   -1.670160   -0.000000
  H     -0.863127   -0.672493   -0.000000
  C     -1.056497   -2.652185   -0.000000
  H     -2.159741   -2.567725   -0.000000
  C     -0.541963   -3.725033   -0.000000
  H     -1.166729   -4.638240   -0.000000
  C      0.644418   -3.815858   -0.000000
  H      1.122896   -4.813525    0.000000

----------------------------
CARTESIAN COORDINATES (A.U.)
----------------------------
  NO LB      ZA    FRAG     MASS         X           Y           Z
   0 C     6.0000    0    12.011    2.487381   -5.355170   -0.000000
   1 H     1.0000    0     1.008    4.572210   -5.514776    0.000000
   2 C     6.0000    0    12.011    1.515053   -3.327779   -0.000000
   3 H     1.0000    0     1.008    2.695690   -1.602068   -0.000000
   4 C     6.0000    0    12.011   -0.726883   -3.156146   -0.000000
   5 H     1.0000    0     1.008   -1.631075   -1.270828   -0.000000
   6 C     6.0000    0    12.011   -1.996490   -5.011902   -0.000000
   7 H     1.0000    0     1.008   -4.081319   -4.852296   -0.000000
   8 C     6.0000    0    12.011   -1.024162   -7.039293   -0.000000
   9 H     1.0000    0     1.008   -2.204799   -8.765004   -0.000000
  10 C     6.0000    0    12.011    1.217774   -7.210926   -0.000000
  11 H     1.0000    0     1.008    2.121966   -9.096244    0.000000

--------------------------------
INTERNAL COORDINATES (ANGSTROEM)
--------------------------------
 C      0   0   0     0.000000000000     0.00000000     0.00000000
 H      1   0   0     1.106471916242     0.00000000     0.00000000
 C      1   2   0     1.189852900622   119.99999999     0.00000000
 H      3   1   2     1.106471916662   119.99999988     0.00000000
 C      3   1   2     1.189852901402   120.00000016   180.00000000
 H      5   3   1     1.106471916116   120.00000007   180.00000000
 C      5   3   1     1.189852900026   119.99999988     0.00000000
 H      7   5   3     1.106471916240   120.00000005   180.00000000
 C      7   5   3     1.189852900621   119.99999996     0.00000000
 H      9   7   5     1.106471916665   119.99999988   180.00000121
 C      1   2   3     1.189852900024   120.00000005   180.00000085
 H     11   1   2     1.106471916114   120.00000005     0.00000000

---------------------------
INTERNAL COORDINATES (A.U.)
---------------------------
 C      0   0   0     0.000000000000     0.00000000     0.00000000
 H      1   0   0     2.090928896573     0.00000000     0.00000000
 C      1   2   0     2.248496121827   119.99999999     0.00000000
 H      3   1   2     2.090928897366   119.99999988     0.00000000
 C      3   1   2     2.248496123302   120.00000016   180.00000000
 H      5   3   1     2.090928896334   120.00000007   180.00000000
 C      5   3   1     2.248496120700   119.99999988     0.00000000
 H      7   5   3     2.090928896568   120.00000005   180.00000000
 C      7   5   3     2.248496121826   119.99999996     0.00000000
 H      9   7   5     2.090928897371   119.99999988   180.00000121
 C      1   2   3     2.248496120697   120.00000005   180.00000085
 H     11   1   2     2.090928896331   120.00000005     0.00000000

---------------------
BASIS SET INFORMATION
---------------------
There are 2 groups of distinct atoms

 Group   1 Type C   : 10s4p1d contracted to 3s2p1d pattern {631/31/1}
 Group   2 Type H   : 4s contracted to 2s pattern {31}

Atom   0C    basis set group =>   1
Atom   1H    basis set group =>   2
Atom   2C    basis set group =>   1
Atom   3H    basis set group =>   2
Atom   4C    basis set group =>   1
Atom   5H    basis set group =>   2
Atom   6C    basis set group =>   1
Atom   7H    basis set group =>   2
Atom   8C    basis set group =>   1
Atom   9H    basis set group =>   2
Atom  10C    basis set group =>   1
Atom  11H    basis set group =>   2
------------------------------------------------------------------------------
                           ORCA GTO INTEGRAL CALCULATION
------------------------------------------------------------------------------

                         BASIS SET STATISTICS AND STARTUP INFO

 # of primitive gaussian shells          ...  114
 # of primitive gaussian functions       ...  186
 # of contracted shells                  ...   48
 # of contracted basis functions         ...   96
 Highest angular momentum                ...    2
 Maximum contraction depth               ...    6
 Integral package used                   ... LIBINT
 Integral threshhold            Thresh   ...  1.000e-10
 Primitive cut-off              TCut     ...  1.000e-11


------------------------------ INTEGRAL EVALUATION ----------------------------


 * One electron integrals 
 Pre-screening matrix                    ... done
 Shell pair data                         ... done (   0.001 sec)

-------------------------------------------------------------------------------
                                 ORCA SCF
-------------------------------------------------------------------------------

------------
SCF SETTINGS
------------
Hamiltonian:
 Density Functional     Method          .... DFT(GTOs)
 Exchange Functional    Exchange        .... WB97X-D3
 Correlation Functional Correlation     .... WB97X-D3
 Gradients option       PostSCFGGA      .... off
 Hybrid DFT is turned on
   Fraction HF Exchange ScalHFX         ....  0.195728
   Scaling of DF-GGA-X  ScalDFX         ....  0.000000
   Scaling of DF-GGA-C  ScalDFC         ....  1.000000
   Scaling of DF-LDA-C  ScalLDAC        ....  1.000000
   Perturbative correction              ....  0.000000
 Long-range corrected/Screened/Range-Separated Hybrid DFT is turned on
   Amount of maximum screened exact exchange              ....  0.804272
   Range separation parameter mu (erf(mu*r12)/r12)        ....  0.250000


General Settings:
 Integral files         IntName         .... Scan_4
 Hartree-Fock type      HFTyp           .... RHF
 Total Charge           Charge          ....    0
 Multiplicity           Mult            ....    1
 Number of Electrons    NEL             ....   42
 Basis Dimension        Dim             ....   96
 Nuclear Repulsion      ENuc            ....    232.3191516974 Eh

Convergence Acceleration:
 DIIS                   CNVDIIS         .... on
   Start iteration      DIISMaxIt       ....     0
   Startup error        DIISStart       ....  0.200000
   # of expansion vecs  DIISMaxEq       ....     5
   Bias factor          DIISBfac        ....   1.050
   Max. coefficient     DIISMaxC        ....  10.000
 Newton-Raphson         CNVNR           .... off
 SOSCF                  CNVSOSCF        .... off
 Level Shifting         CNVShift        .... off
 Zerner damping         CNVZerner       .... off
 Static damping         CNVDamp         .... off
 Fernandez-Rico         CNVRico         .... off

SCF Procedure:
 Maximum # iterations   MaxIter         ....   999
 SCF integral mode      SCFMode         .... Direct
   Integral package                     .... LIBINT
 Reset frequeny         DirectResetFreq ....    20
 Integral Threshold     Thresh          ....  1.000e-10 Eh
 Primitive CutOff       TCut            ....  1.000e-11 Eh

Convergence Tolerance:
 Convergence Check Mode ConvCheckMode   .... All-Criteria
 Convergence forced     ConvForced      .... 0
 Energy Change          TolE            ....  1.000e-06 Eh
 Max Density Change     TolMaxP         ....  1.000e-05
 RMS Density Change     TolRMSP         ....  1.000e-06
 DIIS Error             TolErr          ....  1.000e-06


Diagonalization of the overlap matrix:
Smallest eigenvalue                        ... 1.183e-04
Time for diagonalization                   ...    0.003 sec
Threshold for overlap eigenvalues          ... 1.000e-08
Number of eigenvalues below threshold      ... 0
Time for construction of square roots      ...    0.006 sec
Total time needed                          ...    0.009 sec

-------------------
DFT GRID GENERATION
-------------------

General Integration Accuracy     IntAcc      ...  4.340
Radial Grid Type                 RadialGrid  ... Gauss-Chebyshev
Angular Grid (max. acc.)         AngularGrid ... Lebedev-110
Angular grid pruning method      GridPruning ... 3 (G Style)
Weight generation scheme         WeightScheme... Becke
Basis function cutoff            BFCut       ...    1.0000e-10
Integration weight cutoff        WCut        ...    1.0000e-14
Grids for H and He will be reduced by one unit

# of grid points (after initial pruning)     ...  14700 (   0.0 sec)
# of grid points (after weights+screening)   ...  13658 (   0.0 sec)
nearest neighbour list constructed           ...    0.0 sec
Grid point re-assignment to atoms done       ...    0.0 sec
Grid point division into batches done        ...    0.0 sec
Reduced shell lists constructed in    0.2 sec

Total number of grid points                  ...    13658
Total number of batches                      ...      220
Average number of points per batch           ...       62
Average number of grid points per atom       ...     1138
Average number of shells per batch           ...    39.14 (81.53%)
Average number of basis functions per batch  ...    81.31 (84.70%)
Average number of large shells per batch     ...    33.12 (84.62%)
Average number of large basis fcns per batch ...    69.43 (85.40%)
Maximum spatial batch extension              ...  17.97, 20.30, 38.86 au
Average spatial batch extension              ...   3.49,  3.76,  5.23 au

Time for grid setup =    0.255 sec

------------------------------
INITIAL GUESS: MODEL POTENTIAL
------------------------------
Loading Hartree-Fock densities                     ... done
Calculating cut-offs                               ... done
Setting up the integral package                    ... done
Initializing the effective Hamiltonian             ... done
Starting the Coulomb interaction                   ... done (   0.1 sec)
Reading the grid                                   ... done
Mapping shells                                     ... done
Starting the XC term evaluation                    ... done (   0.2 sec)
  promolecular density results
     # of electrons  =     42.006983129
     EX              =    -32.899230407
     EC              =     -1.424878196
     EX+EC           =    -34.324108602
Transforming the Hamiltonian                       ... done (   0.0 sec)
Diagonalizing the Hamiltonian                      ... done (   0.0 sec)
Back transforming the eigenvectors                 ... done (   0.0 sec)
Now organizing SCF variables                       ... done
                      ------------------
                      INITIAL GUESS DONE (   0.7 sec)
                      ------------------
--------------
SCF ITERATIONS
--------------
ITER       Energy         Delta-E        Max-DP      RMS-DP      [F,P]   Gradient Norm
               ***  Starting incremental Fock matrix formation  ***
                             ****Resetting KDIIS****
                             ****Turning on KDIIS(Cayley)****
  0   -231.4530847714   0.000000000000 0.03264588  0.00210424  0.1522152   0.126975449
  1   -231.5791364150  -0.126051643618 0.02360337  0.00197066  0.1261878   0.103212872
  2   -231.6602277522  -0.081091337224 0.03893976  0.00301575  0.1039744   0.084957542
  3   -231.7611444021  -0.100916649878 0.05923755  0.00425226  0.0653222   0.053496959
  4   -231.8261342235  -0.064989821352 0.00967948  0.00086098  0.0062184   0.004913446
  5   -231.8267672304  -0.000633006910 0.01359372  0.00115535  0.0033215   0.002242784
  6   -231.8267763086  -0.000009078181 0.00760430  0.00072796  0.0022988   0.002252373
  7   -231.8269458951  -0.000169586527 0.00088186  0.00007166  0.0002490   0.000233936
  8   -231.8269476213  -0.000001726219 0.00005258  0.00000390  0.0000254   0.000029717
                          ***Energy convergence achieved***
  9   -231.8269476343  -0.000000013037 0.00003850  0.00000263  0.0000105   0.000010117
                           ***RMSP convergence achieved***

            ***Energy convergence in two consecutive cycles with***
                    ***'reasonable' density convergence***
                       *** signaling convergence ***

                    *** KDIIS BlockDiag ( 0.001 sec) ***

               *****************************************************
               *                     SUCCESS                       *
               *           SCF CONVERGED AFTER  10 CYCLES          *
               *****************************************************

Setting up the final grid:

General Integration Accuracy     IntAcc      ...  4.670
Radial Grid Type                 RadialGrid  ... Gauss-Chebyshev
Angular Grid (max. acc.)         AngularGrid ... Lebedev-302
Angular grid pruning method      GridPruning ... 3 (G Style)
Weight generation scheme         WeightScheme... Becke
Basis function cutoff            BFCut       ...    1.0000e-10
Integration weight cutoff        WCut        ...    1.0000e-14
Grids for H and He will be reduced by one unit

# of grid points (after initial pruning)     ...  57636 (   0.0 sec)
# of grid points (after weights+screening)   ...  52912 (   0.1 sec)
nearest neighbour list constructed           ...    0.0 sec
Grid point re-assignment to atoms done       ...    0.0 sec
Grid point division into batches done        ...    0.1 sec
Reduced shell lists constructed in    0.8 sec

Total number of grid points                  ...    52912
Total number of batches                      ...      834
Average number of points per batch           ...       63
Average number of grid points per atom       ...     4409
Average number of shells per batch           ...    35.68 (74.33%)
Average number of basis functions per batch  ...    73.99 (77.07%)
Average number of large shells per batch     ...    29.66 (83.11%)
Average number of large basis fcns per batch ...    61.66 (83.33%)
Maximum spatial batch extension              ...  16.95, 20.21, 23.20 au
Average spatial batch extension              ...   2.47,  2.62,  2.95 au

Final grid set up in    0.9 sec
Final integration                            ... done (   0.9 sec)
Change in XC energy                          ...     0.000066379
Integrated number of electrons               ...    41.999936245
Previous integrated no of electrons          ...    42.005536880

----------------
TOTAL SCF ENERGY
----------------

Total Energy       :         -231.82688125 Eh           -6308.33015 eV

Components:
Nuclear Repulsion  :          232.31915170 Eh            6321.72551 eV
Electronic Energy  :         -464.14603295 Eh          -12630.05566 eV
One Electron Energy:         -770.66902473 Eh          -20970.97031 eV
Two Electron Energy:          306.52299178 Eh            8340.91465 eV

Virial components:
Potential Energy   :         -466.79141984 Eh          -12702.04029 eV
Kinetic Energy     :          234.96453859 Eh            6393.71014 eV
Virial Ratio       :            1.98664625


DFT components:
N(Alpha)           :       20.999968122573 electrons
N(Beta)            :       20.999968122573 electrons
N(Total)           :       41.999936245147 electrons
E(XC)              :      -24.396810886154 Eh       

---------------
SCF CONVERGENCE
---------------

  Last Energy change         ...    2.8213e-09  Tolerance :   1.0000e-06
  Last MAX-Density change    ...    1.0916e-05  Tolerance :   1.0000e-05
  Last RMS-Density change    ...    8.2969e-07  Tolerance :   1.0000e-06
  Last DIIS Error            ...    1.7315e-06  Tolerance :   1.0000e-06

             **** THE GBW FILE WAS UPDATED (Scan_4.gbw) ****
             **** DENSITY FILE WAS UPDATED (Scan_4.scfp.tmp) ****
             **** ENERGY FILE WAS UPDATED (Scan_4.en.tmp) ****
----------------
ORBITAL ENERGIES
----------------

  NO   OCC          E(Eh)            E(eV) 
   0   2.0000     -10.231837      -278.4225 
   1   2.0000     -10.230634      -278.3897 
   2   2.0000     -10.230461      -278.3850 
   3   2.0000     -10.228019      -278.3185 
   4   2.0000     -10.227844      -278.3138 
   5   2.0000     -10.226689      -278.2823 
   6   2.0000      -1.087616       -29.5955 
   7   2.0000      -0.902093       -24.5472 
   8   2.0000      -0.902017       -24.5451 
   9   2.0000      -0.728037       -19.8109 
  10   2.0000      -0.727830       -19.8053 
  11   2.0000      -0.676952       -18.4208 
  12   2.0000      -0.599403       -16.3106 
  13   2.0000      -0.552714       -15.0401 
  14   2.0000      -0.523713       -14.2510 
  15   2.0000      -0.523539       -14.2462 
  16   2.0000      -0.497712       -13.5434 
  17   2.0000      -0.407484       -11.0882 
  18   2.0000      -0.407082       -11.0773 
  19   2.0000      -0.368743       -10.0340 
  20   2.0000      -0.368505       -10.0275 
  21   0.0000       0.136852         3.7239 
  22   0.0000       0.137143         3.7319 
  23   0.0000       0.155807         4.2397 
  24   0.0000       0.226988         6.1767 
  25   0.0000       0.227568         6.1924 
  26   0.0000       0.309305         8.4166 
  27   0.0000       0.309659         8.4263 
  28   0.0000       0.319926         8.7056 
  29   0.0000       0.382483        10.4079 
  30   0.0000       0.454432        12.3657 
  31   0.0000       0.455018        12.3817 
  32   0.0000       0.518330        14.1045 
  33   0.0000       0.521240        14.1837 
  34   0.0000       0.521935        14.2026 
  35   0.0000       0.589043        16.0287 
  36   0.0000       0.643034        17.4978 
  37   0.0000       0.657901        17.9024 
  38   0.0000       0.658168        17.9097 
  39   0.0000       0.749183        20.3863 
  40   0.0000       0.749351        20.3909 
  41   0.0000       0.755399        20.5555 
  42   0.0000       0.786450        21.4004 
  43   0.0000       0.787364        21.4253 
  44   0.0000       0.792317        21.5600 
  45   0.0000       0.829383        22.5687 
  46   0.0000       0.838638        22.8205 
  47   0.0000       0.839030        22.8312 
  48   0.0000       0.892292        24.2805 
  49   0.0000       0.892458        24.2850 
  50   0.0000       0.908980        24.7346 
  51   0.0000       0.950008        25.8510 
  52   0.0000       0.950198        25.8562 
  53   0.0000       1.008663        27.4471 
  54   0.0000       1.147958        31.2375 
  55   0.0000       1.175027        31.9741 
  56   0.0000       1.175226        31.9795 
  57   0.0000       1.290635        35.1200 
  58   0.0000       1.291409        35.1410 
  59   0.0000       1.342897        36.5421 
  60   0.0000       1.392372        37.8884 
  61   0.0000       1.397204        38.0199 
  62   0.0000       1.397812        38.0364 
  63   0.0000       1.405047        38.2333 
  64   0.0000       1.562165        42.5087 
  65   0.0000       1.626199        44.2511 
  66   0.0000       1.626598        44.2620 
  67   0.0000       1.674926        45.5770 
  68   0.0000       1.675251        45.5859 
  69   0.0000       1.733833        47.1800 
  70   0.0000       1.734014        47.1849 
  71   0.0000       1.734884        47.2086 
  72   0.0000       2.061615        56.0994 
  73   0.0000       2.124063        57.7987 
  74   0.0000       2.217053        60.3291 
  75   0.0000       2.250082        61.2278 
  76   0.0000       2.251232        61.2591 
  77   0.0000       2.424104        65.9632 
  78   0.0000       2.424843        65.9833 
  79   0.0000       2.570666        69.9514 
  80   0.0000       2.572327        69.9966 
  81   0.0000       2.594869        70.6100 
  82   0.0000       2.595584        70.6294 
  83   0.0000       2.650161        72.1145 
  84   0.0000       2.650389        72.1208 
  85   0.0000       2.736559        74.4655 
  86   0.0000       2.802198        76.2517 
  87   0.0000       2.803199        76.2789 
  88   0.0000       2.996274        81.5328 
  89   0.0000       3.218260        87.5733 
  90   0.0000       3.218841        87.5891 
  91   0.0000       3.219448        87.6056 
  92   0.0000       3.383993        92.0831 
  93   0.0000       3.385690        92.1293 
  94   0.0000       3.481188        94.7279 
  95   0.0000       4.272799       116.2688 

                    ********************************
                    * MULLIKEN POPULATION ANALYSIS *
                    ********************************

-----------------------
MULLIKEN ATOMIC CHARGES
-----------------------
   0 C :   -0.144920
   1 H :    0.143337
   2 C :   -0.140279
   3 H :    0.141763
   4 C :   -0.140252
   5 H :    0.140350
   6 C :   -0.144920
   7 H :    0.143337
   8 C :   -0.140279
   9 H :    0.141763
  10 C :   -0.140252
  11 H :    0.140350
Sum of atomic charges:   -0.0000000

--------------------------------
MULLIKEN REDUCED ORBITAL CHARGES
--------------------------------
  0 C s       :     3.036710  s :     3.036710
      pz      :     0.983688  p :     3.050329
      px      :     1.065787
      py      :     1.000855
      dz2     :     0.003491  d :     0.057881
      dxz     :     0.004859
      dyz     :     0.011541
      dx2y2   :     0.021064
      dxy     :     0.016927
  1 H s       :     0.856663  s :     0.856663
  2 C s       :     3.038145  s :     3.038145
      pz      :     0.983693  p :     3.044284
      px      :     1.018331
      py      :     1.042260
      dz2     :     0.003459  d :     0.057850
      dxz     :     0.009421
      dyz     :     0.006996
      dx2y2   :     0.017434
      dxy     :     0.020540
  3 H s       :     0.858237  s :     0.858237
  4 C s       :     3.037918  s :     3.037918
      pz      :     0.983389  p :     3.044426
      px      :     1.010661
      py      :     1.050376
      dz2     :     0.003492  d :     0.057908
      dxz     :     0.010316
      dyz     :     0.006097
      dx2y2   :     0.018530
      dxy     :     0.019471
  5 H s       :     0.859650  s :     0.859650
  6 C s       :     3.036710  s :     3.036710
      pz      :     0.983688  p :     3.050329
      px      :     1.065787
      py      :     1.000855
      dz2     :     0.003491  d :     0.057881
      dxz     :     0.004859
      dyz     :     0.011541
      dx2y2   :     0.021064
      dxy     :     0.016927
  7 H s       :     0.856663  s :     0.856663
  8 C s       :     3.038145  s :     3.038145
      pz      :     0.983693  p :     3.044284
      px      :     1.018331
      py      :     1.042260
      dz2     :     0.003459  d :     0.057850
      dxz     :     0.009421
      dyz     :     0.006996
      dx2y2   :     0.017434
      dxy     :     0.020540
  9 H s       :     0.858237  s :     0.858237
 10 C s       :     3.037918  s :     3.037918
      pz      :     0.983389  p :     3.044426
      px      :     1.010661
      py      :     1.050376
      dz2     :     0.003492  d :     0.057908
      dxz     :     0.010316
      dyz     :     0.006097
      dx2y2   :     0.018530
      dxy     :     0.019471
 11 H s       :     0.859650  s :     0.859650


                     *******************************
                     * LOEWDIN POPULATION ANALYSIS *
                     *******************************

----------------------
LOEWDIN ATOMIC CHARGES
----------------------
   0 C :   -0.128621
   1 H :    0.128504
   2 C :   -0.128393
   3 H :    0.128431
   4 C :   -0.128131
   5 H :    0.128211
   6 C :   -0.128621
   7 H :    0.128504
   8 C :   -0.128393
   9 H :    0.128431
  10 C :   -0.128131
  11 H :    0.128211

-------------------------------
LOEWDIN REDUCED ORBITAL CHARGES
-------------------------------
  0 C s       :     2.810786  s :     2.810786
      pz      :     0.962653  p :     3.159613
      px      :     1.052503
      py      :     1.144457
      dz2     :     0.010114  d :     0.158221
      dxz     :     0.007103
      dyz     :     0.030252
      dx2y2   :     0.064381
      dxy     :     0.046372
  1 H s       :     0.871496  s :     0.871496
  2 C s       :     2.810807  s :     2.810807
      pz      :     0.962829  p :     3.159298
      px      :     1.115098
      py      :     1.081371
      dz2     :     0.010094  d :     0.158289
      dxz     :     0.022918
      dyz     :     0.014456
      dx2y2   :     0.048532
      dxy     :     0.062289
  3 H s       :     0.871569  s :     0.871569
  4 C s       :     2.810813  s :     2.810813
      pz      :     0.962444  p :     3.159074
      px      :     1.128031
      py      :     1.068599
      dz2     :     0.010117  d :     0.158244
      dxz     :     0.025995
      dyz     :     0.011351
      dx2y2   :     0.053366
      dxy     :     0.057416
  5 H s       :     0.871789  s :     0.871789
  6 C s       :     2.810786  s :     2.810786
      pz      :     0.962653  p :     3.159613
      px      :     1.052503
      py      :     1.144457
      dz2     :     0.010114  d :     0.158221
      dxz     :     0.007103
      dyz     :     0.030252
      dx2y2   :     0.064381
      dxy     :     0.046372
  7 H s       :     0.871496  s :     0.871496
  8 C s       :     2.810807  s :     2.810807
      pz      :     0.962829  p :     3.159298
      px      :     1.115098
      py      :     1.081371
      dz2     :     0.010094  d :     0.158289
      dxz     :     0.022918
      dyz     :     0.014456
      dx2y2   :     0.048532
      dxy     :     0.062289
  9 H s       :     0.871569  s :     0.871569
 10 C s       :     2.810813  s :     2.810813
      pz      :     0.962444  p :     3.159074
      px      :     1.128031
      py      :     1.068599
      dz2     :     0.010117  d :     0.158244
      dxz     :     0.025995
      dyz     :     0.011351
      dx2y2   :     0.053366
      dxy     :     0.057416
 11 H s       :     0.871789  s :     0.871789


                      *****************************
                      * MAYER POPULATION ANALYSIS *
                      *****************************

  NA   - Mulliken gross atomic population
  ZA   - Total nuclear charge
  QA   - Mulliken gross atomic charge
  VA   - Mayer's total valence
  BVA  - Mayer's bonded valence
  FA   - Mayer's free valence

  ATOM       NA         ZA         QA         VA         BVA        FA
  0 C      6.1449     6.0000    -0.1449     4.0906     4.0906    -0.0000
  1 H      0.8567     1.0000     0.1433     0.9289     0.9289    -0.0000
  2 C      6.1403     6.0000    -0.1403     4.0895     4.0895    -0.0000
  3 H      0.8582     1.0000     0.1418     0.9293     0.9293    -0.0000
  4 C      6.1403     6.0000    -0.1403     4.0927     4.0927     0.0000
  5 H      0.8596     1.0000     0.1404     0.9299     0.9299     0.0000
  6 C      6.1449     6.0000    -0.1449     4.0906     4.0906    -0.0000
  7 H      0.8567     1.0000     0.1433     0.9289     0.9289    -0.0000
  8 C      6.1403     6.0000    -0.1403     4.0895     4.0895    -0.0000
  9 H      0.8582     1.0000     0.1418     0.9293     0.9293    -0.0000
 10 C      6.1403     6.0000    -0.1403     4.0927     4.0927     0.0000
 11 H      0.8596     1.0000     0.1404     0.9299     0.9299     0.0000

  Mayer bond orders larger than 0.1
B(  0-C ,  1-H ) :   0.9121 B(  0-C ,  2-C ) :   1.5213 B(  0-C , 10-C ) :   1.5237 
B(  2-C ,  3-H ) :   0.9127 B(  2-C ,  4-C ) :   1.5222 B(  4-C ,  5-H ) :   0.9129 
B(  4-C ,  6-C ) :   1.5237 B(  6-C ,  7-H ) :   0.9121 B(  6-C ,  8-C ) :   1.5213 
B(  8-C ,  9-H ) :   0.9127 B(  8-C , 10-C ) :   1.5222 B( 10-C , 11-H ) :   0.9129 


-------
TIMINGS
-------

Total SCF time: 0 days 0 hours 0 min 53 sec 

Total time                  ....      53.897 sec
Sum of individual times     ....      53.724 sec  ( 99.7%)

Fock matrix formation       ....      52.084 sec  ( 96.6%)
  XC integration            ....       3.678 sec  (  7.1% of F)
    Basis function eval.    ....       1.884 sec  ( 51.2% of XC)
    Density eval.           ....       0.315 sec  (  8.6% of XC)
    XC-Functional eval.     ....       0.595 sec  ( 16.2% of XC)
    XC-Potential eval.      ....       0.560 sec  ( 15.2% of XC)
Diagonalization             ....       0.027 sec  (  0.0%)
Density matrix formation    ....       0.001 sec  (  0.0%)
Population analysis         ....       0.013 sec  (  0.0%)
Initial guess               ....       0.453 sec  (  0.8%)
Orbital Transformation      ....       0.000 sec  (  0.0%)
Orbital Orthonormalization  ....       0.000 sec  (  0.0%)
DIIS solution               ....       0.000 sec  (  0.0%)
Grid generation             ....       1.146 sec  (  2.1%)


-------------------------------------------------------------------------------
                          DFT DISPERSION CORRECTION                            
                                                                               
                              DFTD3 V3.1  Rev 1                                
                              USING zero damping                               
-------------------------------------------------------------------------------
The omegaB97X-D3 functional is recognized. Fit by Chai et al.
Active option DFTDOPT                   ...         3   

molecular C6(AA) [au] = 1320.805175 


            DFT-D V3
 parameters
 s6 scaling factor         :     1.0000 
 rs6 scaling factor        :     1.2810 
 s8 scaling factor         :     1.0000 
 rs8 scaling factor        :     1.0940 
 Damping factor alpha6     :    14.0000 
 Damping factor alpha8     :    16.0000 
 ad hoc parameters k1-k3   :    16.0000     1.3333    -4.0000 

 Edisp/kcal,au: -1.198449359659  -0.001909850419 
 E6   /kcal   :  -0.409604240 
 E8   /kcal   :  -0.788845119 
 % E8         :  65.822148667 

-------------------------   ----------------
Dispersion correction           -0.001909850
-------------------------   ----------------


-------------------------   --------------------
FINAL SINGLE POINT ENERGY      -231.828791103212
-------------------------   --------------------


                            ***************************************
                            *     ORCA property calculations      *
                            ***************************************

                                    ---------------------
                                    Active property flags
                                    ---------------------
   (+) Dipole Moment


------------------------------------------------------------------------------
                       ORCA ELECTRIC PROPERTIES CALCULATION
------------------------------------------------------------------------------

Dipole Moment Calculation                       ... on
Quadrupole Moment Calculation                   ... off
Polarizability Calculation                      ... off
GBWName                                         ... Scan_4.gbw
Electron density file                           ... Scan_4.scfp.tmp

-------------
DIPOLE MOMENT
-------------
                                X             Y             Z
Electronic contribution:     -0.00000       0.00000       0.00000
Nuclear contribution   :     -0.00000      -0.00000       0.00000
                        -----------------------------------------
Total Dipole Moment    :     -0.00000       0.00000       0.00000
                        -----------------------------------------
Magnitude (a.u.)       :      0.00000
Magnitude (Debye)      :      0.00000


Timings for individual modules:

Sum of individual times         ...       54.348 sec (=   0.906 min)
GTO integral calculation        ...        0.427 sec (=   0.007 min)   0.8 %
SCF iterations                  ...       53.921 sec (=   0.899 min)  99.2 %
                             ****ORCA TERMINATED NORMALLY****
TOTAL RUN TIME: 0 days 0 hours 0 minutes 54 seconds 749 msec
