
                                 *****************
                                 * O   R   C   A *
                                 *****************

           --- An Ab Initio, DFT and Semiempirical electronic structure package ---

                  #######################################################
                  #                        -***-                        #
                  #  Department of molecular theory and spectroscopy    #
                  #              Directorship: Frank Neese              #
                  # Max Planck Institute for Chemical Energy Conversion #
                  #                  D-45470 Muelheim/Ruhr              #
                  #                       Germany                       #
                  #                                                     #
                  #                  All rights reserved                #
                  #                        -***-                        #
                  #######################################################


                         Program Version 4.0.0.2 - RELEASE -


 With contributions from (in alphabetic order):
   Daniel Aravena         : Magnetic Properties
   Michael Atanasov       : Ab Initio Ligand Field Theory
   Ute Becker             : Parallelization
   Martin Brehm           : Molecular dynamics
   Dmytro Bykov           : SCF Hessian
   Vijay G. Chilkuri      : MRCI spin determinant printing
   Dipayan Datta          : RHF DLPNO-CCSD density
   Achintya Kumar Dutta   : EOM-CC, STEOM-CC
   Dmitry Ganyushin       : Spin-Orbit,Spin-Spin,Magnetic field MRCI
   Yang Guo               : DLPNO-NEVPT2, CIM, IAO-localization
   Andreas Hansen         : Spin unrestricted coupled pair/coupled cluster methods
   Lee Huntington         : MR-EOM, pCC
   Robert Izsak           : Overlap fitted RIJCOSX, COSX-SCS-MP3, EOM
   Christian Kollmar      : KDIIS, OOCD, Brueckner-CCSD(T), CCSD density
   Simone Kossmann        : Meta GGA functionals, TD-DFT gradient, OOMP2, MP2 Hessian
   Martin Krupicka        : AUTO-CI
   Dagmar Lenk            : GEPOL surface
   Dimitrios Liakos       : Extrapolation schemes; parallel MDCI
   Dimitrios Manganas     : ROCIS; embedding schemes
   Dimitrios Pantazis     : SARC Basis sets
   Taras Petrenko         : DFT Hessian,TD-DFT gradient, ASA, ECA, R-Raman, ABS, FL, XAS/XES, NRVS
   Peter Pinski           : DLPNO-MP2
   Christoph Reimann      : Effective Core Potentials
   Marius Retegan         : Local ZFS, SOC
   Christoph Riplinger    : Optimizer, TS searches, QM/MM, DLPNO-CCSD(T), (RO)-DLPNO pert. Triples
   Tobias Risthaus        : Range-separated hybrids, TD-DFT gradient, RPA, STAB
   Michael Roemelt        : Restricted open shell CIS
   Masaaki Saitow         : Open-shell DLPNO
   Barbara Sandhoefer     : DKH picture change effects
   Kantharuban Sivalingam : CASSCF convergence, NEVPT2, FIC-MRCI
   Georgi Stoychev        : AutoAux
   Boris Wezisla          : Elementary symmetry handling
   Frank Wennmohs         : Technical directorship


 We gratefully acknowledge several colleagues who have allowed us to
 interface, adapt or use parts of their codes:
   Stefan Grimme, W. Hujo, H. Kruse,             : VdW corrections, initial TS optimization,
                  C. Bannwarth                     DFT functionals, gCP, sTDA/sTD-DF
   Ed Valeev                                     : LibInt (2-el integral package), F12 methods
   Garnet Chan, S. Sharma, J. Yang, R. Olivares  : DMRG
   Ulf Ekstrom                                   : XCFun DFT Library
   Mihaly Kallay                                 : mrcc  (arbitrary order and MRCC methods)
   Jiri Pittner, Ondrej Demel                    : Mk-CCSD
   Frank Weinhold                                : gennbo (NPA and NBO analysis)
   Christopher J. Cramer and Donald G. Truhlar   : smd solvation model


 Your calculation uses the libint2 library for the computation of 2-el integrals
 For citations please refer to: http://libint.valeyev.net

 This ORCA versions uses:
   CBLAS   interface :  Fast vector & matrix operations
   LAPACKE interface :  Fast linear algebra routines
   SCALAPACK package :  Parallel linear algebra routines


Your calculation utilizes the atom-pairwise dispersion correction
with the zero-damping scheme (D30)
Cite in your paper:
S.Grimme, J.Antony, S.Ehrlich and H.Krieg, J.Chem.Phys., 132, (2010), 154104 
   

XCFun DFT library Copyright 2009-2010 Ulf Ekstrom and contributors.
See http://admol.org/xcfun for more information. This is free soft-
ware; see the source code for copying conditions. There is ABSOLUTELY
NO WARRANTY; not even for MERCHANTABILITY or FITNESS FOR A PARTICULAR
PURPOSE. For details see the documentation. Scientific users of this 
library should cite U. Ekstrom, L. Visscher, R. Bast, A. J. Thorvald-
sen and K. Ruud; J.Chem.Theor.Comp. 2010, DOI: 10.1021/ct100117s
XCFun Version 0.99 
Your calculation utilizes the basis: 6-31G(d)
   H-He, Li-Ne : W. J. Hehre, R. Ditchfield and J.A. Pople, J. Chem. Phys. 56, 2257 (1972).
                 Note: He and Ne are unpublished basis sets taken from the Gaussian program.
                 Note: Li and B from J. D. Dill and J. A. Pople, J. Chem. Phys. 62, 2921 (1975).
   Na - Ar     : M. M. Francl, W. J. Pietro, W. J. Hehre, J. S. Binkley, M. S. Gordon, 
                 D. J. DeFrees and J. A. Pople, J. Chem. Phys. 77, 3654 (1982).
   K - Zn      : V. A. Rassolov, J. A. Pople, M. A. Ratner, and T. L. Windus, J. Chem. Phys. 109, 1223 (1998).

================================================================================
                                        WARNINGS
                       Please study these warnings very carefully!
================================================================================

Warning: TCutStore was < 0. Adjusted to Thresh (uncritical)

INFO   : the flag for use of LIBINT has been found!

================================================================================
                                       INPUT FILE
================================================================================
NAME = initial40.inp
|  1> ! WB97X-D3 6-31G(d) VerySlowConv
|  2> ! KDIIS NOSOSCF
|  3> %base "Scan_40"
|  4> 
|  5> %scf
|  6> maxiter 999
|  7> end
|  8> 
|  9> * xyz 0 1
| 10> C          4.644556495888   -2.524691757878    0.132273401715
| 11> H          4.556640163219   -3.633467959318    0.107973956993
| 12> C          2.193921485522    1.230892778831   -0.045501222388
| 13> H          3.122078380421    0.619589706869    0.004360875139
| 14> C         -2.287633876396    0.993722388867   -0.077602560341
| 15> H         -1.286582059729    1.478242702168   -0.105936579335
| 16> C         -4.396849093681   -2.962337164773    0.128280605258
| 17> H         -4.306384863488   -1.853783601614    0.103275413766
| 18> C         -1.928206967210   -6.707049550055   -0.028442910395
| 19> H         -2.857890390759   -6.098513768221    0.026542624705
| 20> C          2.553694537750   -6.488516331492   -0.108554900459
| 21> H          1.551266188484   -6.970197443374   -0.136668704594
| 22> **                         ****END OF INPUT****
================================================================================

                       ****************************
                       * Single Point Calculation *
                       ****************************

---------------------------------
CARTESIAN COORDINATES (ANGSTROEM)
---------------------------------
  C      4.644556   -2.524692    0.132273
  H      4.556640   -3.633468    0.107974
  C      2.193921    1.230893   -0.045501
  H      3.122078    0.619590    0.004361
  C     -2.287634    0.993722   -0.077603
  H     -1.286582    1.478243   -0.105937
  C     -4.396849   -2.962337    0.128281
  H     -4.306385   -1.853784    0.103275
  C     -1.928207   -6.707050   -0.028443
  H     -2.857890   -6.098514    0.026543
  C      2.553695   -6.488516   -0.108555
  H      1.551266   -6.970197   -0.136669

----------------------------
CARTESIAN COORDINATES (A.U.)
----------------------------
  NO LB      ZA    FRAG     MASS         X           Y           Z
   0 C     6.0000    0    12.011    8.776940   -4.770976    0.249961
   1 H     1.0000    0     1.008    8.610802   -6.866259    0.204041
   2 C     6.0000    0    12.011    4.145911    2.326050   -0.085985
   3 H     1.0000    0     1.008    5.899873    1.170855    0.008241
   4 C     6.0000    0    12.011   -4.323002    1.877863   -0.146648
   5 H     1.0000    0     1.008   -2.431288    2.793474   -0.200191
   6 C     6.0000    0    12.011   -8.308841   -5.598006    0.242415
   7 H     1.0000    0     1.008   -8.137888   -3.503143    0.195162
   8 C     6.0000    0    12.011   -3.643783  -12.674487   -0.053749
   9 H     1.0000    0     1.008   -5.400630  -11.524521    0.050158
  10 C     6.0000    0    12.011    4.825783  -12.261519   -0.205139
  11 H     1.0000    0     1.008    2.931468  -13.171764   -0.258266

--------------------------------
INTERNAL COORDINATES (ANGSTROEM)
--------------------------------
 C      0   0   0     0.000000000000     0.00000000     0.00000000
 H      1   0   0     1.112521644483     0.00000000     0.00000000
 C      1   2   0     4.487942845377   142.18391276     0.00000000
 H      3   1   2     1.112498492632    23.48521381   183.75381115
 C      3   1   2     4.487941482652   120.08819236     5.81749906
 H      5   3   1     1.112505051802    22.87267849   182.34498826
 C      5   3   1     4.487937600129   121.03493285     0.92975073
 H      7   5   3     1.112519680248    23.42350401   175.10586556
 C      7   5   3     4.487942407989   118.38482063   354.23658565
 H      9   7   5     1.112497404430    23.39199214   181.56497238
 C      2   1   3     3.494277769747   149.42499491   359.54575617
 H     11   2   1     1.112506033664   150.67089774   353.06995960

---------------------------
INTERNAL COORDINATES (A.U.)
---------------------------
 C      0   0   0     0.000000000000     0.00000000     0.00000000
 H      1   0   0     2.102361226133     0.00000000     0.00000000
 C      1   2   0     8.480982882455   142.18391276     0.00000000
 H      3   1   2     2.102317475475    23.48521381   183.75381115
 C      3   1   2     8.480980307277   120.08819236     5.81749906
 H      5   3   1     2.102329870510    22.87267849   182.34498826
 C      5   3   1     8.480972970371   121.03493285     0.92975073
 H      7   5   3     2.102357514266    23.42350401   175.10586556
 C      7   5   3     8.480982055911   118.38482063   354.23658565
 H      9   7   5     2.102315419072    23.39199214   181.56497238
 C      2   1   3     6.603228020671   149.42499491   359.54575617
 H     11   2   1     2.102331725960   150.67089774   353.06995960

---------------------
BASIS SET INFORMATION
---------------------
There are 2 groups of distinct atoms

 Group   1 Type C   : 10s4p1d contracted to 3s2p1d pattern {631/31/1}
 Group   2 Type H   : 4s contracted to 2s pattern {31}

Atom   0C    basis set group =>   1
Atom   1H    basis set group =>   2
Atom   2C    basis set group =>   1
Atom   3H    basis set group =>   2
Atom   4C    basis set group =>   1
Atom   5H    basis set group =>   2
Atom   6C    basis set group =>   1
Atom   7H    basis set group =>   2
Atom   8C    basis set group =>   1
Atom   9H    basis set group =>   2
Atom  10C    basis set group =>   1
Atom  11H    basis set group =>   2
------------------------------------------------------------------------------
                           ORCA GTO INTEGRAL CALCULATION
------------------------------------------------------------------------------

                         BASIS SET STATISTICS AND STARTUP INFO

 # of primitive gaussian shells          ...  114
 # of primitive gaussian functions       ...  186
 # of contracted shells                  ...   48
 # of contracted basis functions         ...   96
 Highest angular momentum                ...    2
 Maximum contraction depth               ...    6
 Integral package used                   ... LIBINT
 Integral threshhold            Thresh   ...  1.000e-10
 Primitive cut-off              TCut     ...  1.000e-11


------------------------------ INTEGRAL EVALUATION ----------------------------


 * One electron integrals 
 Pre-screening matrix                    ... done
 Shell pair data                         ... done (   0.000 sec)

-------------------------------------------------------------------------------
                                 ORCA SCF
-------------------------------------------------------------------------------

------------
SCF SETTINGS
------------
Hamiltonian:
 Density Functional     Method          .... DFT(GTOs)
 Exchange Functional    Exchange        .... WB97X-D3
 Correlation Functional Correlation     .... WB97X-D3
 Gradients option       PostSCFGGA      .... off
 Hybrid DFT is turned on
   Fraction HF Exchange ScalHFX         ....  0.195728
   Scaling of DF-GGA-X  ScalDFX         ....  0.000000
   Scaling of DF-GGA-C  ScalDFC         ....  1.000000
   Scaling of DF-LDA-C  ScalLDAC        ....  1.000000
   Perturbative correction              ....  0.000000
 Long-range corrected/Screened/Range-Separated Hybrid DFT is turned on
   Amount of maximum screened exact exchange              ....  0.804272
   Range separation parameter mu (erf(mu*r12)/r12)        ....  0.250000


General Settings:
 Integral files         IntName         .... Scan_40
 Hartree-Fock type      HFTyp           .... RHF
 Total Charge           Charge          ....    0
 Multiplicity           Mult            ....    1
 Number of Electrons    NEL             ....   42
 Basis Dimension        Dim             ....   96
 Nuclear Repulsion      ENuc            ....     81.0393829217 Eh

Convergence Acceleration:
 DIIS                   CNVDIIS         .... on
   Start iteration      DIISMaxIt       ....     0
   Startup error        DIISStart       ....  0.200000
   # of expansion vecs  DIISMaxEq       ....     5
   Bias factor          DIISBfac        ....   1.050
   Max. coefficient     DIISMaxC        ....  10.000
 Newton-Raphson         CNVNR           .... off
 SOSCF                  CNVSOSCF        .... off
 Level Shifting         CNVShift        .... off
 Zerner damping         CNVZerner       .... off
 Static damping         CNVDamp         .... off
 Fernandez-Rico         CNVRico         .... off

SCF Procedure:
 Maximum # iterations   MaxIter         ....   999
 SCF integral mode      SCFMode         .... Direct
   Integral package                     .... LIBINT
 Reset frequeny         DirectResetFreq ....    20
 Integral Threshold     Thresh          ....  1.000e-10 Eh
 Primitive CutOff       TCut            ....  1.000e-11 Eh

Convergence Tolerance:
 Convergence Check Mode ConvCheckMode   .... All-Criteria
 Convergence forced     ConvForced      .... 0
 Energy Change          TolE            ....  1.000e-06 Eh
 Max Density Change     TolMaxP         ....  1.000e-05
 RMS Density Change     TolRMSP         ....  1.000e-06
 DIIS Error             TolErr          ....  1.000e-06


Diagonalization of the overlap matrix:
Smallest eigenvalue                        ... 4.019e-02
Time for diagonalization                   ...    0.003 sec
Threshold for overlap eigenvalues          ... 1.000e-08
Number of eigenvalues below threshold      ... 0
Time for construction of square roots      ...    0.005 sec
Total time needed                          ...    0.008 sec

-------------------
DFT GRID GENERATION
-------------------

General Integration Accuracy     IntAcc      ...  4.340
Radial Grid Type                 RadialGrid  ... Gauss-Chebyshev
Angular Grid (max. acc.)         AngularGrid ... Lebedev-110
Angular grid pruning method      GridPruning ... 3 (G Style)
Weight generation scheme         WeightScheme... Becke
Basis function cutoff            BFCut       ...    1.0000e-10
Integration weight cutoff        WCut        ...    1.0000e-14
Grids for H and He will be reduced by one unit

# of grid points (after initial pruning)     ...  14700 (   0.0 sec)
# of grid points (after weights+screening)   ...  14401 (   0.0 sec)
nearest neighbour list constructed           ...    0.0 sec
Grid point re-assignment to atoms done       ...    0.0 sec
Grid point division into batches done        ...    0.0 sec
Reduced shell lists constructed in    0.1 sec

Total number of grid points                  ...    14401
Total number of batches                      ...      230
Average number of points per batch           ...       62
Average number of grid points per atom       ...     1200
Average number of shells per batch           ...    17.37 (36.18%)
Average number of basis functions per batch  ...    33.28 (34.67%)
Average number of large shells per batch     ...    11.81 (67.97%)
Average number of large basis fcns per batch ...    23.42 (70.38%)
Maximum spatial batch extension              ...  20.53, 20.82, 31.36 au
Average spatial batch extension              ...   5.00,  5.20,  6.43 au

Time for grid setup =    0.212 sec

------------------------------
INITIAL GUESS: MODEL POTENTIAL
------------------------------
Loading Hartree-Fock densities                     ... done
Calculating cut-offs                               ... done
Setting up the integral package                    ... done
Initializing the effective Hamiltonian             ... done
Starting the Coulomb interaction                   ... done (   0.0 sec)
Reading the grid                                   ... done
Mapping shells                                     ... done
Starting the XC term evaluation                    ... done (   0.1 sec)
  promolecular density results
     # of electrons  =     41.993758881
     EX              =    -31.542355558
     EC              =     -1.139516106
     EX+EC           =    -32.681871664
Transforming the Hamiltonian                       ... done (   0.0 sec)
Diagonalizing the Hamiltonian                      ... done (   0.0 sec)
Back transforming the eigenvectors                 ... done (   0.0 sec)
Now organizing SCF variables                       ... done
                      ------------------
                      INITIAL GUESS DONE (   0.5 sec)
                      ------------------
--------------
SCF ITERATIONS
--------------
ITER       Energy         Delta-E        Max-DP      RMS-DP      [F,P]   Gradient Norm
               ***  Starting incremental Fock matrix formation  ***
                             ****Resetting KDIIS****
                             ****Turning on KDIIS(Cayley)****
  0   -230.3712844815   0.000000000000 0.01505872  0.00048260  0.0345874   0.030130308
  1   -230.3792185657  -0.007934084217 0.01159254  0.00050894  0.0289131   0.025716412
  2   -230.3858448217  -0.006626256010 0.02112373  0.00084617  0.0236037   0.020886826
  3   -230.3943214539  -0.008476632121 0.03467195  0.00140380  0.0148278   0.012744522
  4   -230.3996100170  -0.005288563129 0.00206556  0.00007593  0.0008313   0.000648652
  5   -230.3996315351  -0.000021518131 0.00083191  0.00004561  0.0004235   0.000278280
  6   -230.3996409754  -0.000009440330 0.00084841  0.00005761  0.0003155   0.000195546
  7   -230.3996484699  -0.000007494415 0.00080954  0.00005340  0.0003272   0.000234158
  8   -230.3996543346  -0.000005864774 0.00053219  0.00002730  0.0001594   0.000077113
  9   -230.3996560313  -0.000001696614 0.00024424  0.00001178  0.0001365   0.000062914
                          ***Energy convergence achieved***
 10   -230.3996566414  -0.000000610189 0.00057492  0.00002592  0.0001018   0.000052740
 11   -230.3996578713  -0.000001229818 0.00022107  0.00001044  0.0000882   0.000046273
                          ***Energy convergence achieved***
 12   -230.3996583123  -0.000000441060 0.00022171  0.00000979  0.0000971   0.000040196

            ***Energy convergence in two consecutive cycles with***
                    ***'reasonable' density convergence***
                       *** signaling convergence ***

                    *** KDIIS BlockDiag ( 0.002 sec) ***

               *****************************************************
               *                     SUCCESS                       *
               *           SCF CONVERGED AFTER  13 CYCLES          *
               *****************************************************

Setting up the final grid:

General Integration Accuracy     IntAcc      ...  4.670
Radial Grid Type                 RadialGrid  ... Gauss-Chebyshev
Angular Grid (max. acc.)         AngularGrid ... Lebedev-302
Angular grid pruning method      GridPruning ... 3 (G Style)
Weight generation scheme         WeightScheme... Becke
Basis function cutoff            BFCut       ...    1.0000e-10
Integration weight cutoff        WCut        ...    1.0000e-14
Grids for H and He will be reduced by one unit

# of grid points (after initial pruning)     ...  57636 (   0.0 sec)
# of grid points (after weights+screening)   ...  56212 (   0.1 sec)
nearest neighbour list constructed           ...    0.0 sec
Grid point re-assignment to atoms done       ...    0.0 sec
Grid point division into batches done        ...    0.2 sec
Reduced shell lists constructed in    0.6 sec

Total number of grid points                  ...    56212
Total number of batches                      ...      885
Average number of points per batch           ...       63
Average number of grid points per atom       ...     4684
Average number of shells per batch           ...    14.50 (30.20%)
Average number of basis functions per batch  ...    27.70 (28.86%)
Average number of large shells per batch     ...    10.10 (69.69%)
Average number of large basis fcns per batch ...    20.00 (72.18%)
Maximum spatial batch extension              ...  19.98, 20.12, 23.10 au
Average spatial batch extension              ...   3.24,  3.29,  3.77 au

Final grid set up in    0.7 sec
Final integration                            ... done (   0.5 sec)
Change in XC energy                          ...     0.000766514
Integrated number of electrons               ...    41.999980230
Previous integrated no of electrons          ...    41.999834872

----------------
TOTAL SCF ENERGY
----------------

Total Energy       :         -230.39889225 Eh           -6269.47259 eV

Components:
Nuclear Repulsion  :           81.03938292 Eh            2205.19372 eV
Electronic Energy  :         -311.43827517 Eh           -8474.66631 eV
One Electron Energy:         -467.83400995 Eh          -12730.41061 eV
Two Electron Energy:          156.39573478 Eh            4255.74430 eV

Virial components:
Potential Energy   :         -459.80990448 Eh          -12512.06360 eV
Kinetic Energy     :          229.41101223 Eh            6242.59101 eV
Virial Ratio       :            2.00430616


DFT components:
N(Alpha)           :       20.999990114930 electrons
N(Beta)            :       20.999990114930 electrons
N(Total)           :       41.999980229860 electrons
E(XC)              :      -22.778436192238 Eh       

---------------
SCF CONVERGENCE
---------------

  Last Energy change         ...   -4.4957e-07  Tolerance :   1.0000e-06
  Last MAX-Density change    ...    6.5426e-05  Tolerance :   1.0000e-05
  Last RMS-Density change    ...    3.4100e-06  Tolerance :   1.0000e-06
  Last DIIS Error            ...    1.0233e-04  Tolerance :   1.0000e-06

             **** THE GBW FILE WAS UPDATED (Scan_40.gbw) ****
             **** DENSITY FILE WAS UPDATED (Scan_40.scfp.tmp) ****
             **** ENERGY FILE WAS UPDATED (Scan_40.en.tmp) ****
----------------
ORBITAL ENERGIES
----------------

  NO   OCC          E(Eh)            E(eV) 
   0   2.0000     -10.392180      -282.7856 
   1   2.0000     -10.392147      -282.7847 
   2   2.0000     -10.392048      -282.7820 
   3   2.0000     -10.392009      -282.7809 
   4   2.0000     -10.391986      -282.7803 
   5   2.0000     -10.391941      -282.7791 
   6   2.0000      -0.738797       -20.1037 
   7   2.0000      -0.737978       -20.0814 
   8   2.0000      -0.737796       -20.0764 
   9   2.0000      -0.735897       -20.0248 
  10   2.0000      -0.735727       -20.0202 
  11   2.0000      -0.734923       -19.9983 
  12   2.0000      -0.410167       -11.1612 
  13   2.0000      -0.406647       -11.0654 
  14   2.0000      -0.406558       -11.0630 
  15   2.0000      -0.399272       -10.8647 
  16   2.0000      -0.399037       -10.8584 
  17   2.0000      -0.395148       -10.7525 
  18   2.0000      -0.233586        -6.3562 
  19   2.0000      -0.213039        -5.7971 
  20   2.0000      -0.212861        -5.7922 
  21   0.0000      -0.112363        -3.0576 
  22   0.0000      -0.112146        -3.0516 
  23   0.0000      -0.091865        -2.4998 
  24   0.0000      -0.031266        -0.8508 
  25   0.0000      -0.030789        -0.8378 
  26   0.0000      -0.030649        -0.8340 
  27   0.0000      -0.029698        -0.8081 
  28   0.0000      -0.029547        -0.8040 
  29   0.0000      -0.029079        -0.7913 
  30   0.0000       0.192385         5.2351 
  31   0.0000       0.209925         5.7124 
  32   0.0000       0.210545         5.7292 
  33   0.0000       0.250332         6.8119 
  34   0.0000       0.250975         6.8294 
  35   0.0000       0.273737         7.4488 
  36   0.0000       0.632169        17.2022 
  37   0.0000       0.635914        17.3041 
  38   0.0000       0.636223        17.3125 
  39   0.0000       0.644241        17.5307 
  40   0.0000       0.644570        17.5396 
  41   0.0000       0.650133        17.6910 
  42   0.0000       0.650374        17.6976 
  43   0.0000       0.653382        17.7794 
  44   0.0000       0.653462        17.7816 
  45   0.0000       0.659788        17.9537 
  46   0.0000       0.659849        17.9554 
  47   0.0000       0.663063        18.0429 
  48   0.0000       0.670451        18.2439 
  49   0.0000       0.673945        18.3390 
  50   0.0000       0.674459        18.3530 
  51   0.0000       0.678231        18.4556 
  52   0.0000       0.678790        18.4708 
  53   0.0000       0.680482        18.5168 
  54   0.0000       0.747804        20.3488 
  55   0.0000       0.748777        20.3752 
  56   0.0000       0.749074        20.3833 
  57   0.0000       0.751775        20.4568 
  58   0.0000       0.752413        20.4742 
  59   0.0000       0.754010        20.5177 
  60   0.0000       1.002012        27.2661 
  61   0.0000       1.015380        27.6299 
  62   0.0000       1.016325        27.6556 
  63   0.0000       1.048985        28.5443 
  64   0.0000       1.050757        28.5925 
  65   0.0000       1.071528        29.1578 
  66   0.0000       1.753881        47.7255 
  67   0.0000       1.753886        47.7257 
  68   0.0000       1.753944        47.7273 
  69   0.0000       1.753946        47.7273 
  70   0.0000       1.754239        47.7353 
  71   0.0000       1.754240        47.7353 
  72   0.0000       1.767367        48.0925 
  73   0.0000       1.767477        48.0955 
  74   0.0000       1.767819        48.1048 
  75   0.0000       1.767971        48.1089 
  76   0.0000       1.768490        48.1231 
  77   0.0000       1.768502        48.1234 
  78   0.0000       1.779136        48.4128 
  79   0.0000       1.779204        48.4146 
  80   0.0000       1.779419        48.4205 
  81   0.0000       1.779640        48.4265 
  82   0.0000       1.779807        48.4310 
  83   0.0000       1.779889        48.4332 
  84   0.0000       1.782919        48.5157 
  85   0.0000       1.782937        48.5162 
  86   0.0000       1.783782        48.5392 
  87   0.0000       1.783918        48.5429 
  88   0.0000       1.784280        48.5527 
  89   0.0000       1.784298        48.5532 
  90   0.0000       2.206352        60.0379 
  91   0.0000       2.206829        60.0509 
  92   0.0000       2.207076        60.0576 
  93   0.0000       2.207938        60.0811 
  94   0.0000       2.208060        60.0844 
  95   0.0000       2.208469        60.0955 

                    ********************************
                    * MULLIKEN POPULATION ANALYSIS *
                    ********************************

-----------------------
MULLIKEN ATOMIC CHARGES
-----------------------
   0 C :   -0.170011
   1 H :    0.170904
   2 C :   -0.171872
   3 H :    0.171468
   4 C :   -0.172090
   5 H :    0.171556
   6 C :   -0.169972
   7 H :    0.170957
   8 C :   -0.171941
   9 H :    0.171440
  10 C :   -0.172048
  11 H :    0.171611
Sum of atomic charges:   -0.0000000

--------------------------------
MULLIKEN REDUCED ORBITAL CHARGES
--------------------------------
  0 C s       :     3.919639  s :     3.919639
      pz      :     0.005925  p :     2.235944
      px      :     0.990524
      py      :     1.239495
      dz2     :     0.003573  d :     0.014429
      dxz     :     0.000001
      dyz     :     0.000023
      dx2y2   :     0.010036
      dxy     :     0.000796
  1 H s       :     0.829096  s :     0.829096
  2 C s       :     3.919979  s :     3.919979
      pz      :     0.003057  p :     2.237528
      px      :     1.183505
      py      :     1.050965
      dz2     :     0.003516  d :     0.014365
      dxz     :     0.000057
      dyz     :     0.000029
      dx2y2   :     0.002027
      dxy     :     0.008736
  3 H s       :     0.828532  s :     0.828532
  4 C s       :     3.920302  s :     3.920302
      pz      :     0.003141  p :     2.237396
      px      :     1.178151
      py      :     1.056104
      dz2     :     0.003551  d :     0.014392
      dxz     :     0.000021
      dyz     :     0.000006
      dx2y2   :     0.004334
      dxy     :     0.006479
  5 H s       :     0.828444  s :     0.828444
  6 C s       :     3.919655  s :     3.919655
      pz      :     0.004743  p :     2.235890
      px      :     0.991917
      py      :     1.239230
      dz2     :     0.003573  d :     0.014427
      dxz     :     0.000001
      dyz     :     0.000023
      dx2y2   :     0.010021
      dxy     :     0.000809
  7 H s       :     0.829043  s :     0.829043
  8 C s       :     3.919942  s :     3.919942
      pz      :     0.003161  p :     2.237634
      px      :     1.184412
      py      :     1.050061
      dz2     :     0.003507  d :     0.014365
      dxz     :     0.000070
      dyz     :     0.000034
      dx2y2   :     0.002068
      dxy     :     0.008687
  9 H s       :     0.828560  s :     0.828560
 10 C s       :     3.920338  s :     3.920338
      pz      :     0.004157  p :     2.237318
      px      :     1.179580
      py      :     1.053581
      dz2     :     0.003552  d :     0.014392
      dxz     :     0.000021
      dyz     :     0.000006
      dx2y2   :     0.004389
      dxy     :     0.006424
 11 H s       :     0.828389  s :     0.828389


                     *******************************
                     * LOEWDIN POPULATION ANALYSIS *
                     *******************************

----------------------
LOEWDIN ATOMIC CHARGES
----------------------
   0 C :   -0.115972
   1 H :    0.116849
   2 C :   -0.117540
   3 H :    0.117102
   4 C :   -0.117647
   5 H :    0.117177
   6 C :   -0.115937
   7 H :    0.116874
   8 C :   -0.117601
   9 H :    0.117102
  10 C :   -0.117601
  11 H :    0.117194

-------------------------------
LOEWDIN REDUCED ORBITAL CHARGES
-------------------------------
  0 C s       :     3.752854  s :     3.752854
      pz      :     0.005989  p :     2.343649
      px      :     0.992100
      py      :     1.345561
      dz2     :     0.004851  d :     0.019469
      dxz     :     0.000001
      dyz     :     0.000030
      dx2y2   :     0.013693
      dxy     :     0.000893
  1 H s       :     0.883151  s :     0.883151
  2 C s       :     3.752864  s :     3.752864
      pz      :     0.003280  p :     2.345280
      px      :     1.254925
      py      :     1.087076
      dz2     :     0.004781  d :     0.019395
      dxz     :     0.000078
      dyz     :     0.000038
      dx2y2   :     0.002597
      dxy     :     0.011901
  3 H s       :     0.882898  s :     0.882898
  4 C s       :     3.752984  s :     3.752984
      pz      :     0.003204  p :     2.345234
      px      :     1.268065
      py      :     1.073966
      dz2     :     0.004830  d :     0.019428
      dxz     :     0.000029
      dyz     :     0.000008
      dx2y2   :     0.005791
      dxy     :     0.008771
  5 H s       :     0.882823  s :     0.882823
  6 C s       :     3.752858  s :     3.752858
      pz      :     0.004807  p :     2.343610
      px      :     0.993538
      py      :     1.345265
      dz2     :     0.004851  d :     0.019468
      dxz     :     0.000001
      dyz     :     0.000031
      dx2y2   :     0.013673
      dxy     :     0.000912
  7 H s       :     0.883126  s :     0.883126
  8 C s       :     3.752850  s :     3.752850
      pz      :     0.003427  p :     2.345357
      px      :     1.255926
      py      :     1.086004
      dz2     :     0.004768  d :     0.019393
      dxz     :     0.000096
      dyz     :     0.000045
      dx2y2   :     0.002653
      dxy     :     0.011832
  9 H s       :     0.882898  s :     0.882898
 10 C s       :     3.753000  s :     3.753000
      pz      :     0.004218  p :     2.345171
      px      :     1.269592
      py      :     1.071361
      dz2     :     0.004831  d :     0.019430
      dxz     :     0.000029
      dyz     :     0.000008
      dx2y2   :     0.005866
      dxy     :     0.008696
 11 H s       :     0.882806  s :     0.882806


                      *****************************
                      * MAYER POPULATION ANALYSIS *
                      *****************************

  NA   - Mulliken gross atomic population
  ZA   - Total nuclear charge
  QA   - Mulliken gross atomic charge
  VA   - Mayer's total valence
  BVA  - Mayer's bonded valence
  FA   - Mayer's free valence

  ATOM       NA         ZA         QA         VA         BVA        FA
  0 C      6.1700     6.0000    -0.1700     1.9073     1.9073    -0.0000
  1 H      0.8291     1.0000     0.1709     0.9108     0.9108    -0.0000
  2 C      6.1719     6.0000    -0.1719     1.9070     1.9070     0.0000
  3 H      0.8285     1.0000     0.1715     0.9107     0.9107     0.0000
  4 C      6.1721     6.0000    -0.1721     1.9069     1.9069     0.0000
  5 H      0.8284     1.0000     0.1716     0.9106     0.9106     0.0000
  6 C      6.1700     6.0000    -0.1700     1.9074     1.9074     0.0000
  7 H      0.8290     1.0000     0.1710     0.9107     0.9107     0.0000
  8 C      6.1719     6.0000    -0.1719     1.9069     1.9069    -0.0000
  9 H      0.8286     1.0000     0.1714     0.9108     0.9108    -0.0000
 10 C      6.1720     6.0000    -0.1720     1.9069     1.9069    -0.0000
 11 H      0.8284     1.0000     0.1716     0.9105     0.9105    -0.0000

  Mayer bond orders larger than 0.1
B(  0-C ,  1-H ) :   0.9012 B(  0-C ,  2-C ) :   0.4368 B(  0-C ,  6-C ) :   0.1074 
B(  0-C , 10-C ) :   0.4522 B(  2-C ,  3-H ) :   0.9009 B(  2-C ,  4-C ) :   0.4481 
B(  2-C ,  8-C ) :   0.1115 B(  4-C ,  5-H ) :   0.9007 B(  4-C ,  6-C ) :   0.4353 
B(  4-C , 10-C ) :   0.1132 B(  6-C ,  7-H ) :   0.9012 B(  6-C ,  8-C ) :   0.4537 
B(  8-C ,  9-H ) :   0.9009 B(  8-C , 10-C ) :   0.4312 B( 10-C , 11-H ) :   0.9007 


-------
TIMINGS
-------

Total SCF time: 0 days 0 hours 0 min 14 sec 

Total time                  ....      14.651 sec
Sum of individual times     ....      14.452 sec  ( 98.6%)

Fock matrix formation       ....      13.199 sec  ( 90.1%)
  XC integration            ....       2.507 sec  ( 19.0% of F)
    Basis function eval.    ....       1.006 sec  ( 40.1% of XC)
    Density eval.           ....       0.145 sec  (  5.8% of XC)
    XC-Functional eval.     ....       0.838 sec  ( 33.4% of XC)
    XC-Potential eval.      ....       0.105 sec  (  4.2% of XC)
Diagonalization             ....       0.045 sec  (  0.3%)
Density matrix formation    ....       0.002 sec  (  0.0%)
Population analysis         ....       0.014 sec  (  0.1%)
Initial guess               ....       0.254 sec  (  1.7%)
Orbital Transformation      ....       0.000 sec  (  0.0%)
Orbital Orthonormalization  ....       0.000 sec  (  0.0%)
DIIS solution               ....       0.000 sec  (  0.0%)
Grid generation             ....       0.938 sec  (  6.4%)


-------------------------------------------------------------------------------
                          DFT DISPERSION CORRECTION                            
                                                                               
                              DFTD3 V3.1  Rev 1                                
                              USING zero damping                               
-------------------------------------------------------------------------------
The omegaB97X-D3 functional is recognized. Fit by Chai et al.
Active option DFTDOPT                   ...         3   

molecular C6(AA) [au] = 2491.626857 


            DFT-D V3
 parameters
 s6 scaling factor         :     1.0000 
 rs6 scaling factor        :     1.2810 
 s8 scaling factor         :     1.0000 
 rs8 scaling factor        :     1.0940 
 Damping factor alpha6     :    14.0000 
 Damping factor alpha8     :    16.0000 
 ad hoc parameters k1-k3   :    16.0000     1.3333    -4.0000 

 Edisp/kcal,au: -1.020816902783  -0.001626775110 
 E6   /kcal   :  -0.627095247 
 E8   /kcal   :  -0.393721655 
 % E8         :  38.569272748 

-------------------------   ----------------
Dispersion correction           -0.001626775
-------------------------   ----------------


-------------------------   --------------------
FINAL SINGLE POINT ENERGY      -230.400519023228
-------------------------   --------------------


                            ***************************************
                            *     ORCA property calculations      *
                            ***************************************

                                    ---------------------
                                    Active property flags
                                    ---------------------
   (+) Dipole Moment


------------------------------------------------------------------------------
                       ORCA ELECTRIC PROPERTIES CALCULATION
------------------------------------------------------------------------------

Dipole Moment Calculation                       ... on
Quadrupole Moment Calculation                   ... off
Polarizability Calculation                      ... off
GBWName                                         ... Scan_40.gbw
Electron density file                           ... Scan_40.scfp.tmp

-------------
DIPOLE MOMENT
-------------
                                X             Y             Z
Electronic contribution:      0.00007       0.00017       0.00162
Nuclear contribution   :     -0.00031      -0.00013      -0.00078
                        -----------------------------------------
Total Dipole Moment    :     -0.00024       0.00004       0.00084
                        -----------------------------------------
Magnitude (a.u.)       :      0.00087
Magnitude (Debye)      :      0.00222


Timings for individual modules:

Sum of individual times         ...       15.123 sec (=   0.252 min)
GTO integral calculation        ...        0.447 sec (=   0.007 min)   3.0 %
SCF iterations                  ...       14.675 sec (=   0.245 min)  97.0 %
                             ****ORCA TERMINATED NORMALLY****
TOTAL RUN TIME: 0 days 0 hours 0 minutes 15 seconds 511 msec
