
                                 *****************
                                 * O   R   C   A *
                                 *****************

           --- An Ab Initio, DFT and Semiempirical electronic structure package ---

                  #######################################################
                  #                        -***-                        #
                  #  Department of molecular theory and spectroscopy    #
                  #              Directorship: Frank Neese              #
                  # Max Planck Institute for Chemical Energy Conversion #
                  #                  D-45470 Muelheim/Ruhr              #
                  #                       Germany                       #
                  #                                                     #
                  #                  All rights reserved                #
                  #                        -***-                        #
                  #######################################################


                         Program Version 4.0.0.2 - RELEASE -


 With contributions from (in alphabetic order):
   Daniel Aravena         : Magnetic Properties
   Michael Atanasov       : Ab Initio Ligand Field Theory
   Ute Becker             : Parallelization
   Martin Brehm           : Molecular dynamics
   Dmytro Bykov           : SCF Hessian
   Vijay G. Chilkuri      : MRCI spin determinant printing
   Dipayan Datta          : RHF DLPNO-CCSD density
   Achintya Kumar Dutta   : EOM-CC, STEOM-CC
   Dmitry Ganyushin       : Spin-Orbit,Spin-Spin,Magnetic field MRCI
   Yang Guo               : DLPNO-NEVPT2, CIM, IAO-localization
   Andreas Hansen         : Spin unrestricted coupled pair/coupled cluster methods
   Lee Huntington         : MR-EOM, pCC
   Robert Izsak           : Overlap fitted RIJCOSX, COSX-SCS-MP3, EOM
   Christian Kollmar      : KDIIS, OOCD, Brueckner-CCSD(T), CCSD density
   Simone Kossmann        : Meta GGA functionals, TD-DFT gradient, OOMP2, MP2 Hessian
   Martin Krupicka        : AUTO-CI
   Dagmar Lenk            : GEPOL surface
   Dimitrios Liakos       : Extrapolation schemes; parallel MDCI
   Dimitrios Manganas     : ROCIS; embedding schemes
   Dimitrios Pantazis     : SARC Basis sets
   Taras Petrenko         : DFT Hessian,TD-DFT gradient, ASA, ECA, R-Raman, ABS, FL, XAS/XES, NRVS
   Peter Pinski           : DLPNO-MP2
   Christoph Reimann      : Effective Core Potentials
   Marius Retegan         : Local ZFS, SOC
   Christoph Riplinger    : Optimizer, TS searches, QM/MM, DLPNO-CCSD(T), (RO)-DLPNO pert. Triples
   Tobias Risthaus        : Range-separated hybrids, TD-DFT gradient, RPA, STAB
   Michael Roemelt        : Restricted open shell CIS
   Masaaki Saitow         : Open-shell DLPNO
   Barbara Sandhoefer     : DKH picture change effects
   Kantharuban Sivalingam : CASSCF convergence, NEVPT2, FIC-MRCI
   Georgi Stoychev        : AutoAux
   Boris Wezisla          : Elementary symmetry handling
   Frank Wennmohs         : Technical directorship


 We gratefully acknowledge several colleagues who have allowed us to
 interface, adapt or use parts of their codes:
   Stefan Grimme, W. Hujo, H. Kruse,             : VdW corrections, initial TS optimization,
                  C. Bannwarth                     DFT functionals, gCP, sTDA/sTD-DF
   Ed Valeev                                     : LibInt (2-el integral package), F12 methods
   Garnet Chan, S. Sharma, J. Yang, R. Olivares  : DMRG
   Ulf Ekstrom                                   : XCFun DFT Library
   Mihaly Kallay                                 : mrcc  (arbitrary order and MRCC methods)
   Jiri Pittner, Ondrej Demel                    : Mk-CCSD
   Frank Weinhold                                : gennbo (NPA and NBO analysis)
   Christopher J. Cramer and Donald G. Truhlar   : smd solvation model


 Your calculation uses the libint2 library for the computation of 2-el integrals
 For citations please refer to: http://libint.valeyev.net

 This ORCA versions uses:
   CBLAS   interface :  Fast vector & matrix operations
   LAPACKE interface :  Fast linear algebra routines
   SCALAPACK package :  Parallel linear algebra routines


Your calculation utilizes the atom-pairwise dispersion correction
with the zero-damping scheme (D30)
Cite in your paper:
S.Grimme, J.Antony, S.Ehrlich and H.Krieg, J.Chem.Phys., 132, (2010), 154104 
   

XCFun DFT library Copyright 2009-2010 Ulf Ekstrom and contributors.
See http://admol.org/xcfun for more information. This is free soft-
ware; see the source code for copying conditions. There is ABSOLUTELY
NO WARRANTY; not even for MERCHANTABILITY or FITNESS FOR A PARTICULAR
PURPOSE. For details see the documentation. Scientific users of this 
library should cite U. Ekstrom, L. Visscher, R. Bast, A. J. Thorvald-
sen and K. Ruud; J.Chem.Theor.Comp. 2010, DOI: 10.1021/ct100117s
XCFun Version 0.99 
Your calculation utilizes the basis: 6-31G(d)
   H-He, Li-Ne : W. J. Hehre, R. Ditchfield and J.A. Pople, J. Chem. Phys. 56, 2257 (1972).
                 Note: He and Ne are unpublished basis sets taken from the Gaussian program.
                 Note: Li and B from J. D. Dill and J. A. Pople, J. Chem. Phys. 62, 2921 (1975).
   Na - Ar     : M. M. Francl, W. J. Pietro, W. J. Hehre, J. S. Binkley, M. S. Gordon, 
                 D. J. DeFrees and J. A. Pople, J. Chem. Phys. 77, 3654 (1982).
   K - Zn      : V. A. Rassolov, J. A. Pople, M. A. Ratner, and T. L. Windus, J. Chem. Phys. 109, 1223 (1998).

================================================================================
                                        WARNINGS
                       Please study these warnings very carefully!
================================================================================

Warning: TCutStore was < 0. Adjusted to Thresh (uncritical)

INFO   : the flag for use of LIBINT has been found!

================================================================================
                                       INPUT FILE
================================================================================
NAME = initial41.inp
|  1> ! WB97X-D3 6-31G(d) VerySlowConv
|  2> ! KDIIS NOSOSCF
|  3> %base "Scan_41"
|  4> 
|  5> %scf
|  6> maxiter 999
|  7> end
|  8> 
|  9> * xyz 0 1
| 10> C          4.748020148131   -2.532651215232    0.134941659504
| 11> H          4.661954387894   -3.641553558094    0.110366271946
| 12> C          2.252390552156    1.315737202645   -0.045059885346
| 13> H          3.181396788270    0.705727930399    0.004635799320
| 14> C         -2.331995951928    1.085924541604   -0.080272391324
| 15> H         -1.331608247883    1.571721132255   -0.109782674581
| 16> C         -4.500426294236   -2.954363639048    0.130927432312
| 17> H         -4.411339765209   -1.845669464003    0.107558320956
| 18> C         -1.986646031448   -6.791839407287   -0.028313910625
| 19> H         -2.917301572971   -6.184741316284    0.025882829916
| 20> C          2.598019475948   -6.580779524887   -0.111618072338
| 21> H          1.596146511299   -7.063622682055   -0.139265379678
| 22> **                         ****END OF INPUT****
================================================================================

                       ****************************
                       * Single Point Calculation *
                       ****************************

---------------------------------
CARTESIAN COORDINATES (ANGSTROEM)
---------------------------------
  C      4.748020   -2.532651    0.134942
  H      4.661954   -3.641554    0.110366
  C      2.252391    1.315737   -0.045060
  H      3.181397    0.705728    0.004636
  C     -2.331996    1.085925   -0.080272
  H     -1.331608    1.571721   -0.109783
  C     -4.500426   -2.954364    0.130927
  H     -4.411340   -1.845669    0.107558
  C     -1.986646   -6.791839   -0.028314
  H     -2.917302   -6.184741    0.025883
  C      2.598019   -6.580780   -0.111618
  H      1.596147   -7.063623   -0.139265

----------------------------
CARTESIAN COORDINATES (A.U.)
----------------------------
  NO LB      ZA    FRAG     MASS         X           Y           Z
   0 C     6.0000    0    12.011    8.972458   -4.786017    0.255003
   1 H     1.0000    0     1.008    8.809817   -6.881539    0.208562
   2 C     6.0000    0    12.011    4.256401    2.486383   -0.085151
   3 H     1.0000    0     1.008    6.011969    1.333633    0.008760
   4 C     6.0000    0    12.011   -4.406834    2.052100   -0.151693
   5 H     1.0000    0     1.008   -2.516375    2.970122   -0.207459
   6 C     6.0000    0    12.011   -8.504573   -5.582938    0.247417
   7 H     1.0000    0     1.008   -8.336224   -3.487810    0.203256
   8 C     6.0000    0    12.011   -3.754217  -12.834716   -0.053506
   9 H     1.0000    0     1.008   -5.512901  -11.687467    0.048911
  10 C     6.0000    0    12.011    4.909545  -12.435871   -0.210928
  11 H     1.0000    0     1.008    3.016280  -13.348312   -0.263173

--------------------------------
INTERNAL COORDINATES (ANGSTROEM)
--------------------------------
 C      0   0   0     0.000000000000     0.00000000     0.00000000
 H      1   0   0     1.112508728399     0.00000000     0.00000000
 C      1   2   0     4.590278973146   142.44175072     0.00000000
 H      3   1   2     1.112489802218    23.72802427   183.75839164
 C      3   1   2     4.590278139566   120.08648491     5.80283910
 H      5   3   1     1.112494828172    23.11284591   182.56502834
 C      5   3   1     4.590274947937   121.03113866     1.00019155
 H      7   5   3     1.112513055563    23.65792969   174.87569875
 C      7   5   3     4.590279870194   118.39446426   354.20745008
 H      9   7   5     1.112486006992    23.64760003   181.65530865
 C      2   1   3     3.598354297971   149.30681124   359.45832594
 H     11   2   1     1.112497786659   150.76115770   353.10844952

---------------------------
INTERNAL COORDINATES (A.U.)
---------------------------
 C      0   0   0     0.000000000000     0.00000000     0.00000000
 H      1   0   0     2.102336818271     0.00000000     0.00000000
 C      1   2   0     8.674370137543   142.44175072     0.00000000
 H      3   1   2     2.102301052972    23.72802427   183.75839164
 C      3   1   2     8.674368562306   120.08648491     5.80283910
 H      5   3   1     2.102310550650    23.11284591   182.56502834
 C      5   3   1     8.674362531001   121.03113866     1.00019155
 H      7   5   3     2.102344995426    23.65792969   174.87569875
 C      7   5   3     8.674371832717   118.39446426   354.20745008
 H      9   7   5     2.102293881034    23.64760003   181.65530865
 C      2   1   3     6.799904155984   149.30681124   359.45832594
 H     11   2   1     2.102316141379   150.76115770   353.10844952

---------------------
BASIS SET INFORMATION
---------------------
There are 2 groups of distinct atoms

 Group   1 Type C   : 10s4p1d contracted to 3s2p1d pattern {631/31/1}
 Group   2 Type H   : 4s contracted to 2s pattern {31}

Atom   0C    basis set group =>   1
Atom   1H    basis set group =>   2
Atom   2C    basis set group =>   1
Atom   3H    basis set group =>   2
Atom   4C    basis set group =>   1
Atom   5H    basis set group =>   2
Atom   6C    basis set group =>   1
Atom   7H    basis set group =>   2
Atom   8C    basis set group =>   1
Atom   9H    basis set group =>   2
Atom  10C    basis set group =>   1
Atom  11H    basis set group =>   2
------------------------------------------------------------------------------
                           ORCA GTO INTEGRAL CALCULATION
------------------------------------------------------------------------------

                         BASIS SET STATISTICS AND STARTUP INFO

 # of primitive gaussian shells          ...  114
 # of primitive gaussian functions       ...  186
 # of contracted shells                  ...   48
 # of contracted basis functions         ...   96
 Highest angular momentum                ...    2
 Maximum contraction depth               ...    6
 Integral package used                   ... LIBINT
 Integral threshhold            Thresh   ...  1.000e-10
 Primitive cut-off              TCut     ...  1.000e-11


------------------------------ INTEGRAL EVALUATION ----------------------------


 * One electron integrals 
 Pre-screening matrix                    ... done
 Shell pair data                         ... done (   0.000 sec)

-------------------------------------------------------------------------------
                                 ORCA SCF
-------------------------------------------------------------------------------

------------
SCF SETTINGS
------------
Hamiltonian:
 Density Functional     Method          .... DFT(GTOs)
 Exchange Functional    Exchange        .... WB97X-D3
 Correlation Functional Correlation     .... WB97X-D3
 Gradients option       PostSCFGGA      .... off
 Hybrid DFT is turned on
   Fraction HF Exchange ScalHFX         ....  0.195728
   Scaling of DF-GGA-X  ScalDFX         ....  0.000000
   Scaling of DF-GGA-C  ScalDFC         ....  1.000000
   Scaling of DF-LDA-C  ScalLDAC        ....  1.000000
   Perturbative correction              ....  0.000000
 Long-range corrected/Screened/Range-Separated Hybrid DFT is turned on
   Amount of maximum screened exact exchange              ....  0.804272
   Range separation parameter mu (erf(mu*r12)/r12)        ....  0.250000


General Settings:
 Integral files         IntName         .... Scan_41
 Hartree-Fock type      HFTyp           .... RHF
 Total Charge           Charge          ....    0
 Multiplicity           Mult            ....    1
 Number of Electrons    NEL             ....   42
 Basis Dimension        Dim             ....   96
 Nuclear Repulsion      ENuc            ....     79.5858200193 Eh

Convergence Acceleration:
 DIIS                   CNVDIIS         .... on
   Start iteration      DIISMaxIt       ....     0
   Startup error        DIISStart       ....  0.200000
   # of expansion vecs  DIISMaxEq       ....     5
   Bias factor          DIISBfac        ....   1.050
   Max. coefficient     DIISMaxC        ....  10.000
 Newton-Raphson         CNVNR           .... off
 SOSCF                  CNVSOSCF        .... off
 Level Shifting         CNVShift        .... off
 Zerner damping         CNVZerner       .... off
 Static damping         CNVDamp         .... off
 Fernandez-Rico         CNVRico         .... off

SCF Procedure:
 Maximum # iterations   MaxIter         ....   999
 SCF integral mode      SCFMode         .... Direct
   Integral package                     .... LIBINT
 Reset frequeny         DirectResetFreq ....    20
 Integral Threshold     Thresh          ....  1.000e-10 Eh
 Primitive CutOff       TCut            ....  1.000e-11 Eh

Convergence Tolerance:
 Convergence Check Mode ConvCheckMode   .... All-Criteria
 Convergence forced     ConvForced      .... 0
 Energy Change          TolE            ....  1.000e-06 Eh
 Max Density Change     TolMaxP         ....  1.000e-05
 RMS Density Change     TolRMSP         ....  1.000e-06
 DIIS Error             TolErr          ....  1.000e-06


Diagonalization of the overlap matrix:
Smallest eigenvalue                        ... 4.148e-02
Time for diagonalization                   ...    0.002 sec
Threshold for overlap eigenvalues          ... 1.000e-08
Number of eigenvalues below threshold      ... 0
Time for construction of square roots      ...    0.005 sec
Total time needed                          ...    0.007 sec

-------------------
DFT GRID GENERATION
-------------------

General Integration Accuracy     IntAcc      ...  4.340
Radial Grid Type                 RadialGrid  ... Gauss-Chebyshev
Angular Grid (max. acc.)         AngularGrid ... Lebedev-110
Angular grid pruning method      GridPruning ... 3 (G Style)
Weight generation scheme         WeightScheme... Becke
Basis function cutoff            BFCut       ...    1.0000e-10
Integration weight cutoff        WCut        ...    1.0000e-14
Grids for H and He will be reduced by one unit

# of grid points (after initial pruning)     ...  14700 (   0.0 sec)
# of grid points (after weights+screening)   ...  14414 (   0.0 sec)
nearest neighbour list constructed           ...    0.0 sec
Grid point re-assignment to atoms done       ...    0.0 sec
Grid point division into batches done        ...    0.0 sec
Reduced shell lists constructed in    0.1 sec

Total number of grid points                  ...    14414
Total number of batches                      ...      231
Average number of points per batch           ...       62
Average number of grid points per atom       ...     1201
Average number of shells per batch           ...    16.73 (34.85%)
Average number of basis functions per batch  ...    32.03 (33.36%)
Average number of large shells per batch     ...    11.47 (68.59%)
Average number of large basis fcns per batch ...    22.79 (71.16%)
Maximum spatial batch extension              ...  20.25, 22.93, 31.36 au
Average spatial batch extension              ...   4.90,  5.22,  6.42 au

Time for grid setup =    0.199 sec

------------------------------
INITIAL GUESS: MODEL POTENTIAL
------------------------------
Loading Hartree-Fock densities                     ... done
Calculating cut-offs                               ... done
Setting up the integral package                    ... done
Initializing the effective Hamiltonian             ... done
Starting the Coulomb interaction                   ... done (   0.0 sec)
Reading the grid                                   ... done
Mapping shells                                     ... done
Starting the XC term evaluation                    ... done (   0.1 sec)
  promolecular density results
     # of electrons  =     41.993850061
     EX              =    -31.542008715
     EC              =     -1.139245135
     EX+EC           =    -32.681253850
Transforming the Hamiltonian                       ... done (   0.0 sec)
Diagonalizing the Hamiltonian                      ... done (   0.0 sec)
Back transforming the eigenvectors                 ... done (   0.0 sec)
Now organizing SCF variables                       ... done
                      ------------------
                      INITIAL GUESS DONE (   0.4 sec)
                      ------------------
--------------
SCF ITERATIONS
--------------
ITER       Energy         Delta-E        Max-DP      RMS-DP      [F,P]   Gradient Norm
               ***  Starting incremental Fock matrix formation  ***
                             ****Resetting KDIIS****
                             ****Turning on KDIIS(Cayley)****
  0   -230.3579182100   0.000000000000 0.01744672  0.00055818  0.0365624   0.032320986
  1   -230.3683206880  -0.010402478007 0.01275714  0.00054355  0.0302150   0.027154921
  2   -230.3762258330  -0.007905145014 0.02350668  0.00092759  0.0246983   0.022109096
  3   -230.3865223589  -0.010296525862 0.03906725  0.00152844  0.0155392   0.013496337
  4   -230.3928485545  -0.006326195639 0.00202935  0.00008597  0.0011566   0.000808587
  5   -230.3928798877  -0.000031333220 0.00065982  0.00004320  0.0004652   0.000338730
  6   -230.3928918258  -0.000011938057 0.00158291  0.00008870  0.0004789   0.000266695
  7   -230.3929086508  -0.000016825036 0.00124579  0.00007089  0.0003644   0.000299528
  8   -230.3929189909  -0.000010340047 0.00085673  0.00004177  0.0002318   0.000106884
  9   -230.3929225137  -0.000003522842 0.00037849  0.00001991  0.0002091   0.000107116
 10   -230.3929238450  -0.000001331292 0.00083878  0.00003837  0.0001384   0.000070052
 11   -230.3929261223  -0.000002277335 0.00028114  0.00001332  0.0001147   0.000058140
                          ***Energy convergence achieved***
 12   -230.3929267986  -0.000000676283 0.00027453  0.00001174  0.0001240   0.000050882

            ***Energy convergence in two consecutive cycles with***
                    ***'reasonable' density convergence***
                       *** signaling convergence ***

                    *** KDIIS BlockDiag ( 0.001 sec) ***

               *****************************************************
               *                     SUCCESS                       *
               *           SCF CONVERGED AFTER  13 CYCLES          *
               *****************************************************

Setting up the final grid:

General Integration Accuracy     IntAcc      ...  4.670
Radial Grid Type                 RadialGrid  ... Gauss-Chebyshev
Angular Grid (max. acc.)         AngularGrid ... Lebedev-302
Angular grid pruning method      GridPruning ... 3 (G Style)
Weight generation scheme         WeightScheme... Becke
Basis function cutoff            BFCut       ...    1.0000e-10
Integration weight cutoff        WCut        ...    1.0000e-14
Grids for H and He will be reduced by one unit

# of grid points (after initial pruning)     ...  57636 (   0.0 sec)
# of grid points (after weights+screening)   ...  56278 (   0.1 sec)
nearest neighbour list constructed           ...    0.0 sec
Grid point re-assignment to atoms done       ...    0.0 sec
Grid point division into batches done        ...    0.2 sec
Reduced shell lists constructed in    0.6 sec

Total number of grid points                  ...    56278
Total number of batches                      ...      887
Average number of points per batch           ...       63
Average number of grid points per atom       ...     4690
Average number of shells per batch           ...    14.23 (29.64%)
Average number of basis functions per batch  ...    27.18 (28.32%)
Average number of large shells per batch     ...     9.79 (68.78%)
Average number of large basis fcns per batch ...    19.42 (71.45%)
Maximum spatial batch extension              ...  20.80, 20.56, 32.81 au
Average spatial batch extension              ...   3.27,  3.29,  3.80 au

Final grid set up in    0.7 sec
Final integration                            ... done (   0.4 sec)
Change in XC energy                          ...     0.000737541
Integrated number of electrons               ...    41.999982241
Previous integrated no of electrons          ...    42.000224598

----------------
TOTAL SCF ENERGY
----------------

Total Energy       :         -230.39218992 Eh           -6269.29021 eV

Components:
Nuclear Repulsion  :           79.58582002 Eh            2165.64026 eV
Electronic Energy  :         -309.97800993 Eh           -8434.93047 eV
One Electron Energy:         -464.92797513 Eh          -12651.33338 eV
Two Electron Energy:          154.94996519 Eh            4216.40291 eV

Virial components:
Potential Energy   :         -459.81768268 Eh          -12512.27526 eV
Kinetic Energy     :          229.42549277 Eh            6242.98505 eV
Virial Ratio       :            2.00421356


DFT components:
N(Alpha)           :       20.999991120267 electrons
N(Beta)            :       20.999991120267 electrons
N(Total)           :       41.999982240534 electrons
E(XC)              :      -22.780306533761 Eh       

---------------
SCF CONVERGENCE
---------------

  Last Energy change         ...   -6.5771e-07  Tolerance :   1.0000e-06
  Last MAX-Density change    ...    8.6276e-05  Tolerance :   1.0000e-05
  Last RMS-Density change    ...    4.5304e-06  Tolerance :   1.0000e-06
  Last DIIS Error            ...    1.3005e-04  Tolerance :   1.0000e-06

             **** THE GBW FILE WAS UPDATED (Scan_41.gbw) ****
             **** DENSITY FILE WAS UPDATED (Scan_41.scfp.tmp) ****
             **** ENERGY FILE WAS UPDATED (Scan_41.en.tmp) ****
----------------
ORBITAL ENERGIES
----------------

  NO   OCC          E(Eh)            E(eV) 
   0   2.0000     -10.391832      -282.7761 
   1   2.0000     -10.391778      -282.7747 
   2   2.0000     -10.391697      -282.7725 
   3   2.0000     -10.391640      -282.7709 
   4   2.0000     -10.391630      -282.7706 
   5   2.0000     -10.391568      -282.7689 
   6   2.0000      -0.738577       -20.0977 
   7   2.0000      -0.737887       -20.0789 
   8   2.0000      -0.737711       -20.0741 
   9   2.0000      -0.736087       -20.0300 
  10   2.0000      -0.735919       -20.0254 
  11   2.0000      -0.735245       -20.0070 
  12   2.0000      -0.408810       -11.1243 
  13   2.0000      -0.405843       -11.0436 
  14   2.0000      -0.405761       -11.0413 
  15   2.0000      -0.399672       -10.8756 
  16   2.0000      -0.399423       -10.8688 
  17   2.0000      -0.396195       -10.7810 
  18   2.0000      -0.231494        -6.2993 
  19   2.0000      -0.211602        -5.7580 
  20   2.0000      -0.211444        -5.7537 
  21   0.0000      -0.113537        -3.0895 
  22   0.0000      -0.113347        -3.0843 
  23   0.0000      -0.093656        -2.5485 
  24   0.0000      -0.030904        -0.8409 
  25   0.0000      -0.030537        -0.8310 
  26   0.0000      -0.030398        -0.8272 
  27   0.0000      -0.029667        -0.8073 
  28   0.0000      -0.029515        -0.8032 
  29   0.0000      -0.029157        -0.7934 
  30   0.0000       0.194572         5.2946 
  31   0.0000       0.210891         5.7386 
  32   0.0000       0.211616         5.7584 
  33   0.0000       0.248075         6.7505 
  34   0.0000       0.248701         6.7675 
  35   0.0000       0.269152         7.3240 
  36   0.0000       0.634998        17.2792 
  37   0.0000       0.638101        17.3636 
  38   0.0000       0.638355        17.3705 
  39   0.0000       0.645643        17.5688 
  40   0.0000       0.646060        17.5802 
  41   0.0000       0.651702        17.7337 
  42   0.0000       0.651931        17.7399 
  43   0.0000       0.654207        17.8019 
  44   0.0000       0.654284        17.8040 
  45   0.0000       0.659271        17.9397 
  46   0.0000       0.659329        17.9413 
  47   0.0000       0.661858        18.0101 
  48   0.0000       0.666883        18.1468 
  49   0.0000       0.670451        18.2439 
  50   0.0000       0.670886        18.2557 
  51   0.0000       0.673918        18.3382 
  52   0.0000       0.674409        18.3516 
  53   0.0000       0.675518        18.3818 
  54   0.0000       0.748585        20.3700 
  55   0.0000       0.749225        20.3875 
  56   0.0000       0.749533        20.3958 
  57   0.0000       0.751310        20.4442 
  58   0.0000       0.751909        20.4605 
  59   0.0000       0.752888        20.4871 
  60   0.0000       0.992786        27.0151 
  61   0.0000       1.005635        27.3647 
  62   0.0000       1.006602        27.3910 
  63   0.0000       1.037673        28.2365 
  64   0.0000       1.039156        28.2769 
  65   0.0000       1.058516        28.8037 
  66   0.0000       1.754050        47.7301 
  67   0.0000       1.754062        47.7304 
  68   0.0000       1.754129        47.7323 
  69   0.0000       1.754143        47.7327 
  70   0.0000       1.754404        47.7397 
  71   0.0000       1.754416        47.7401 
  72   0.0000       1.767311        48.0910 
  73   0.0000       1.767404        48.0935 
  74   0.0000       1.767780        48.1037 
  75   0.0000       1.767945        48.1082 
  76   0.0000       1.768464        48.1224 
  77   0.0000       1.768484        48.1229 
  78   0.0000       1.779330        48.4180 
  79   0.0000       1.779391        48.4197 
  80   0.0000       1.779612        48.4257 
  81   0.0000       1.779810        48.4311 
  82   0.0000       1.779981        48.4357 
  83   0.0000       1.780052        48.4377 
  84   0.0000       1.783084        48.5202 
  85   0.0000       1.783104        48.5207 
  86   0.0000       1.783975        48.5444 
  87   0.0000       1.784097        48.5478 
  88   0.0000       1.784439        48.5570 
  89   0.0000       1.784457        48.5575 
  90   0.0000       2.205854        60.0244 
  91   0.0000       2.206510        60.0422 
  92   0.0000       2.206751        60.0488 
  93   0.0000       2.207888        60.0797 
  94   0.0000       2.208023        60.0834 
  95   0.0000       2.208538        60.0974 

                    ********************************
                    * MULLIKEN POPULATION ANALYSIS *
                    ********************************

-----------------------
MULLIKEN ATOMIC CHARGES
-----------------------
   0 C :   -0.168412
   1 H :    0.169230
   2 C :   -0.170568
   3 H :    0.170179
   4 C :   -0.170548
   5 H :    0.170067
   6 C :   -0.168347
   7 H :    0.169264
   8 C :   -0.170678
   9 H :    0.170186
  10 C :   -0.170447
  11 H :    0.170074
Sum of atomic charges:   -0.0000000

--------------------------------
MULLIKEN REDUCED ORBITAL CHARGES
--------------------------------
  0 C s       :     3.920128  s :     3.920128
      pz      :     0.005901  p :     2.233822
      px      :     0.991061
      py      :     1.236860
      dz2     :     0.003581  d :     0.014462
      dxz     :     0.000001
      dyz     :     0.000023
      dx2y2   :     0.010068
      dxy     :     0.000789
  1 H s       :     0.830770  s :     0.830770
  2 C s       :     3.920391  s :     3.920391
      pz      :     0.003095  p :     2.235775
      px      :     1.180519
      py      :     1.052161
      dz2     :     0.003527  d :     0.014403
      dxz     :     0.000057
      dyz     :     0.000028
      dx2y2   :     0.002058
      dxy     :     0.008733
  3 H s       :     0.829821  s :     0.829821
  4 C s       :     3.920829  s :     3.920829
      pz      :     0.003230  p :     2.235294
      px      :     1.177562
      py      :     1.054501
      dz2     :     0.003559  d :     0.014426
      dxz     :     0.000023
      dyz     :     0.000007
      dx2y2   :     0.004314
      dxy     :     0.006522
  5 H s       :     0.829933  s :     0.829933
  6 C s       :     3.920144  s :     3.920144
      pz      :     0.004666  p :     2.233742
      px      :     0.992428
      py      :     1.236648
      dz2     :     0.003583  d :     0.014460
      dxz     :     0.000001
      dyz     :     0.000020
      dx2y2   :     0.010052
      dxy     :     0.000804
  7 H s       :     0.830736  s :     0.830736
  8 C s       :     3.920363  s :     3.920363
      pz      :     0.003108  p :     2.235911
      px      :     1.181589
      py      :     1.051214
      dz2     :     0.003518  d :     0.014403
      dxz     :     0.000068
      dyz     :     0.000033
      dx2y2   :     0.002103
      dxy     :     0.008682
  9 H s       :     0.829814  s :     0.829814
 10 C s       :     3.920863  s :     3.920863
      pz      :     0.004008  p :     2.235158
      px      :     1.179033
      py      :     1.052116
      dz2     :     0.003562  d :     0.014426
      dxz     :     0.000021
      dyz     :     0.000006
      dx2y2   :     0.004372
      dxy     :     0.006465
 11 H s       :     0.829926  s :     0.829926


                     *******************************
                     * LOEWDIN POPULATION ANALYSIS *
                     *******************************

----------------------
LOEWDIN ATOMIC CHARGES
----------------------
   0 C :   -0.115055
   1 H :    0.115868
   2 C :   -0.116705
   3 H :    0.116276
   4 C :   -0.116705
   5 H :    0.116278
   6 C :   -0.114995
   7 H :    0.115884
   8 C :   -0.116794
   9 H :    0.116289
  10 C :   -0.116619
  11 H :    0.116276

-------------------------------
LOEWDIN REDUCED ORBITAL CHARGES
-------------------------------
  0 C s       :     3.753641  s :     3.753641
      pz      :     0.005966  p :     2.341874
      px      :     0.992533
      py      :     1.343375
      dz2     :     0.004870  d :     0.019540
      dxz     :     0.000001
      dyz     :     0.000031
      dx2y2   :     0.013757
      dxy     :     0.000882
  1 H s       :     0.884132  s :     0.884132
  2 C s       :     3.753587  s :     3.753587
      pz      :     0.003317  p :     2.343653
      px      :     1.252218
      py      :     1.088118
      dz2     :     0.004800  d :     0.019466
      dxz     :     0.000078
      dyz     :     0.000038
      dx2y2   :     0.002640
      dxy     :     0.011909
  3 H s       :     0.883724  s :     0.883724
  4 C s       :     3.753785  s :     3.753785
      pz      :     0.003298  p :     2.343420
      px      :     1.267655
      py      :     1.072468
      dz2     :     0.004847  d :     0.019499
      dxz     :     0.000032
      dyz     :     0.000009
      dx2y2   :     0.005769
      dxy     :     0.008842
  5 H s       :     0.883722  s :     0.883722
  6 C s       :     3.753648  s :     3.753648
      pz      :     0.004723  p :     2.341808
      px      :     0.993952
      py      :     1.343133
      dz2     :     0.004872  d :     0.019538
      dxz     :     0.000001
      dyz     :     0.000027
      dx2y2   :     0.013735
      dxy     :     0.000903
  7 H s       :     0.884116  s :     0.884116
  8 C s       :     3.753574  s :     3.753574
      pz      :     0.003368  p :     2.343755
      px      :     1.253403
      py      :     1.086985
      dz2     :     0.004789  d :     0.019465
      dxz     :     0.000093
      dyz     :     0.000043
      dx2y2   :     0.002701
      dxy     :     0.011838
  9 H s       :     0.883711  s :     0.883711
 10 C s       :     3.753804  s :     3.753804
      pz      :     0.004067  p :     2.343315
      px      :     1.269259
      py      :     1.069989
      dz2     :     0.004850  d :     0.019500
      dxz     :     0.000028
      dyz     :     0.000008
      dx2y2   :     0.005849
      dxy     :     0.008764
 11 H s       :     0.883724  s :     0.883724


                      *****************************
                      * MAYER POPULATION ANALYSIS *
                      *****************************

  NA   - Mulliken gross atomic population
  ZA   - Total nuclear charge
  QA   - Mulliken gross atomic charge
  VA   - Mayer's total valence
  BVA  - Mayer's bonded valence
  FA   - Mayer's free valence

  ATOM       NA         ZA         QA         VA         BVA        FA
  0 C      6.1684     6.0000    -0.1684     1.9069     1.9069    -0.0000
  1 H      0.8308     1.0000     0.1692     0.9098     0.9098    -0.0000
  2 C      6.1706     6.0000    -0.1706     1.9067     1.9067     0.0000
  3 H      0.8298     1.0000     0.1702     0.9096     0.9096     0.0000
  4 C      6.1705     6.0000    -0.1705     1.9064     1.9064     0.0000
  5 H      0.8299     1.0000     0.1701     0.9095     0.9095     0.0000
  6 C      6.1683     6.0000    -0.1683     1.9070     1.9070     0.0000
  7 H      0.8307     1.0000     0.1693     0.9097     0.9097     0.0000
  8 C      6.1707     6.0000    -0.1707     1.9066     1.9066    -0.0000
  9 H      0.8298     1.0000     0.1702     0.9097     0.9097    -0.0000
 10 C      6.1704     6.0000    -0.1704     1.9065     1.9065    -0.0000
 11 H      0.8299     1.0000     0.1701     0.9094     0.9094    -0.0000

  Mayer bond orders larger than 0.1
B(  0-C ,  1-H ) :   0.9023 B(  0-C ,  2-C ) :   0.4344 B(  0-C ,  6-C ) :   0.1075 
B(  0-C , 10-C ) :   0.4553 B(  2-C ,  3-H ) :   0.9020 B(  2-C ,  4-C ) :   0.4510 
B(  2-C ,  8-C ) :   0.1118 B(  4-C ,  5-H ) :   0.9018 B(  4-C ,  6-C ) :   0.4331 
B(  4-C , 10-C ) :   0.1131 B(  6-C ,  7-H ) :   0.9023 B(  6-C ,  8-C ) :   0.4565 
B(  8-C ,  9-H ) :   0.9020 B(  8-C , 10-C ) :   0.4288 B( 10-C , 11-H ) :   0.9018 


-------
TIMINGS
-------

Total SCF time: 0 days 0 hours 0 min 13 sec 

Total time                  ....      13.189 sec
Sum of individual times     ....      12.981 sec  ( 98.4%)

Fock matrix formation       ....      11.819 sec  ( 89.6%)
  XC integration            ....       2.278 sec  ( 19.3% of F)
    Basis function eval.    ....       0.885 sec  ( 38.9% of XC)
    Density eval.           ....       0.129 sec  (  5.6% of XC)
    XC-Functional eval.     ....       0.765 sec  ( 33.6% of XC)
    XC-Potential eval.      ....       0.089 sec  (  3.9% of XC)
Diagonalization             ....       0.027 sec  (  0.2%)
Density matrix formation    ....       0.002 sec  (  0.0%)
Population analysis         ....       0.013 sec  (  0.1%)
Initial guess               ....       0.233 sec  (  1.8%)
Orbital Transformation      ....       0.000 sec  (  0.0%)
Orbital Orthonormalization  ....       0.000 sec  (  0.0%)
DIIS solution               ....       0.000 sec  (  0.0%)
Grid generation             ....       0.888 sec  (  6.7%)


-------------------------------------------------------------------------------
                          DFT DISPERSION CORRECTION                            
                                                                               
                              DFTD3 V3.1  Rev 1                                
                              USING zero damping                               
-------------------------------------------------------------------------------
The omegaB97X-D3 functional is recognized. Fit by Chai et al.
Active option DFTDOPT                   ...         3   

molecular C6(AA) [au] = 2491.635254 


            DFT-D V3
 parameters
 s6 scaling factor         :     1.0000 
 rs6 scaling factor        :     1.2810 
 s8 scaling factor         :     1.0000 
 rs8 scaling factor        :     1.0940 
 Damping factor alpha6     :    14.0000 
 Damping factor alpha8     :    16.0000 
 ad hoc parameters k1-k3   :    16.0000     1.3333    -4.0000 

 Edisp/kcal,au: -0.935321418075  -0.001490529398 
 E6   /kcal   :  -0.609443034 
 E8   /kcal   :  -0.325878384 
 % E8         :  34.841325961 

-------------------------   ----------------
Dispersion correction           -0.001490529
-------------------------   ----------------


-------------------------   --------------------
FINAL SINGLE POINT ENERGY      -230.393680444524
-------------------------   --------------------


                            ***************************************
                            *     ORCA property calculations      *
                            ***************************************

                                    ---------------------
                                    Active property flags
                                    ---------------------
   (+) Dipole Moment


------------------------------------------------------------------------------
                       ORCA ELECTRIC PROPERTIES CALCULATION
------------------------------------------------------------------------------

Dipole Moment Calculation                       ... on
Quadrupole Moment Calculation                   ... off
Polarizability Calculation                      ... off
GBWName                                         ... Scan_41.gbw
Electron density file                           ... Scan_41.scfp.tmp

-------------
DIPOLE MOMENT
-------------
                                X             Y             Z
Electronic contribution:      0.00003       0.00015       0.00175
Nuclear contribution   :     -0.00010      -0.00014      -0.00105
                        -----------------------------------------
Total Dipole Moment    :     -0.00007       0.00001       0.00071
                        -----------------------------------------
Magnitude (a.u.)       :      0.00071
Magnitude (Debye)      :      0.00180


Timings for individual modules:

Sum of individual times         ...       13.616 sec (=   0.227 min)
GTO integral calculation        ...        0.404 sec (=   0.007 min)   3.0 %
SCF iterations                  ...       13.212 sec (=   0.220 min)  97.0 %
                             ****ORCA TERMINATED NORMALLY****
TOTAL RUN TIME: 0 days 0 hours 0 minutes 13 seconds 995 msec
