
                                 *****************
                                 * O   R   C   A *
                                 *****************

           --- An Ab Initio, DFT and Semiempirical electronic structure package ---

                  #######################################################
                  #                        -***-                        #
                  #  Department of molecular theory and spectroscopy    #
                  #              Directorship: Frank Neese              #
                  # Max Planck Institute for Chemical Energy Conversion #
                  #                  D-45470 Muelheim/Ruhr              #
                  #                       Germany                       #
                  #                                                     #
                  #                  All rights reserved                #
                  #                        -***-                        #
                  #######################################################


                         Program Version 4.0.0.2 - RELEASE -


 With contributions from (in alphabetic order):
   Daniel Aravena         : Magnetic Properties
   Michael Atanasov       : Ab Initio Ligand Field Theory
   Ute Becker             : Parallelization
   Martin Brehm           : Molecular dynamics
   Dmytro Bykov           : SCF Hessian
   Vijay G. Chilkuri      : MRCI spin determinant printing
   Dipayan Datta          : RHF DLPNO-CCSD density
   Achintya Kumar Dutta   : EOM-CC, STEOM-CC
   Dmitry Ganyushin       : Spin-Orbit,Spin-Spin,Magnetic field MRCI
   Yang Guo               : DLPNO-NEVPT2, CIM, IAO-localization
   Andreas Hansen         : Spin unrestricted coupled pair/coupled cluster methods
   Lee Huntington         : MR-EOM, pCC
   Robert Izsak           : Overlap fitted RIJCOSX, COSX-SCS-MP3, EOM
   Christian Kollmar      : KDIIS, OOCD, Brueckner-CCSD(T), CCSD density
   Simone Kossmann        : Meta GGA functionals, TD-DFT gradient, OOMP2, MP2 Hessian
   Martin Krupicka        : AUTO-CI
   Dagmar Lenk            : GEPOL surface
   Dimitrios Liakos       : Extrapolation schemes; parallel MDCI
   Dimitrios Manganas     : ROCIS; embedding schemes
   Dimitrios Pantazis     : SARC Basis sets
   Taras Petrenko         : DFT Hessian,TD-DFT gradient, ASA, ECA, R-Raman, ABS, FL, XAS/XES, NRVS
   Peter Pinski           : DLPNO-MP2
   Christoph Reimann      : Effective Core Potentials
   Marius Retegan         : Local ZFS, SOC
   Christoph Riplinger    : Optimizer, TS searches, QM/MM, DLPNO-CCSD(T), (RO)-DLPNO pert. Triples
   Tobias Risthaus        : Range-separated hybrids, TD-DFT gradient, RPA, STAB
   Michael Roemelt        : Restricted open shell CIS
   Masaaki Saitow         : Open-shell DLPNO
   Barbara Sandhoefer     : DKH picture change effects
   Kantharuban Sivalingam : CASSCF convergence, NEVPT2, FIC-MRCI
   Georgi Stoychev        : AutoAux
   Boris Wezisla          : Elementary symmetry handling
   Frank Wennmohs         : Technical directorship


 We gratefully acknowledge several colleagues who have allowed us to
 interface, adapt or use parts of their codes:
   Stefan Grimme, W. Hujo, H. Kruse,             : VdW corrections, initial TS optimization,
                  C. Bannwarth                     DFT functionals, gCP, sTDA/sTD-DF
   Ed Valeev                                     : LibInt (2-el integral package), F12 methods
   Garnet Chan, S. Sharma, J. Yang, R. Olivares  : DMRG
   Ulf Ekstrom                                   : XCFun DFT Library
   Mihaly Kallay                                 : mrcc  (arbitrary order and MRCC methods)
   Jiri Pittner, Ondrej Demel                    : Mk-CCSD
   Frank Weinhold                                : gennbo (NPA and NBO analysis)
   Christopher J. Cramer and Donald G. Truhlar   : smd solvation model


 Your calculation uses the libint2 library for the computation of 2-el integrals
 For citations please refer to: http://libint.valeyev.net

 This ORCA versions uses:
   CBLAS   interface :  Fast vector & matrix operations
   LAPACKE interface :  Fast linear algebra routines
   SCALAPACK package :  Parallel linear algebra routines


Your calculation utilizes the atom-pairwise dispersion correction
with the zero-damping scheme (D30)
Cite in your paper:
S.Grimme, J.Antony, S.Ehrlich and H.Krieg, J.Chem.Phys., 132, (2010), 154104 
   

XCFun DFT library Copyright 2009-2010 Ulf Ekstrom and contributors.
See http://admol.org/xcfun for more information. This is free soft-
ware; see the source code for copying conditions. There is ABSOLUTELY
NO WARRANTY; not even for MERCHANTABILITY or FITNESS FOR A PARTICULAR
PURPOSE. For details see the documentation. Scientific users of this 
library should cite U. Ekstrom, L. Visscher, R. Bast, A. J. Thorvald-
sen and K. Ruud; J.Chem.Theor.Comp. 2010, DOI: 10.1021/ct100117s
XCFun Version 0.99 
Your calculation utilizes the basis: 6-31G(d)
   H-He, Li-Ne : W. J. Hehre, R. Ditchfield and J.A. Pople, J. Chem. Phys. 56, 2257 (1972).
                 Note: He and Ne are unpublished basis sets taken from the Gaussian program.
                 Note: Li and B from J. D. Dill and J. A. Pople, J. Chem. Phys. 62, 2921 (1975).
   Na - Ar     : M. M. Francl, W. J. Pietro, W. J. Hehre, J. S. Binkley, M. S. Gordon, 
                 D. J. DeFrees and J. A. Pople, J. Chem. Phys. 77, 3654 (1982).
   K - Zn      : V. A. Rassolov, J. A. Pople, M. A. Ratner, and T. L. Windus, J. Chem. Phys. 109, 1223 (1998).

================================================================================
                                        WARNINGS
                       Please study these warnings very carefully!
================================================================================

Warning: TCutStore was < 0. Adjusted to Thresh (uncritical)

INFO   : the flag for use of LIBINT has been found!

================================================================================
                                       INPUT FILE
================================================================================
NAME = initial42.inp
|  1> ! WB97X-D3 6-31G(d) VerySlowConv
|  2> ! KDIIS NOSOSCF
|  3> %base "Scan_42"
|  4> 
|  5> %scf
|  6> maxiter 999
|  7> end
|  8> 
|  9> * xyz 0 1
| 10> C          4.851519545313   -2.540517711516    0.137782320744
| 11> H          4.766082905715   -3.649472475490    0.113097542275
| 12> C          2.310759056955    1.400518785147   -0.044790502789
| 13> H          3.240080603457    0.790985861999    0.005049552299
| 14> C         -2.376402215211    1.177995850768   -0.084282717187
| 15> H         -1.376203301076    1.664237615836   -0.113086283183
| 16> C         -4.603764821677   -2.946454036611    0.135474534460
| 17> H         -4.515352615766   -1.837717696628    0.111257159616
| 18> C         -2.045059341982   -6.876659894891   -0.029082821949
| 19> H         -2.976028946068   -6.270050217091    0.025342737372
| 20> C          2.642339027514   -6.672873274748   -0.114613166136
| 21> H          1.640640102845   -7.156102806766   -0.142148355461
| 22> **                         ****END OF INPUT****
================================================================================

                       ****************************
                       * Single Point Calculation *
                       ****************************

---------------------------------
CARTESIAN COORDINATES (ANGSTROEM)
---------------------------------
  C      4.851520   -2.540518    0.137782
  H      4.766083   -3.649472    0.113098
  C      2.310759    1.400519   -0.044791
  H      3.240081    0.790986    0.005050
  C     -2.376402    1.177996   -0.084283
  H     -1.376203    1.664238   -0.113086
  C     -4.603765   -2.946454    0.135475
  H     -4.515353   -1.837718    0.111257
  C     -2.045059   -6.876660   -0.029083
  H     -2.976029   -6.270050    0.025343
  C      2.642339   -6.672873   -0.114613
  H      1.640640   -7.156103   -0.142148

----------------------------
CARTESIAN COORDINATES (A.U.)
----------------------------
  NO LB      ZA    FRAG     MASS         X           Y           Z
   0 C     6.0000    0    12.011    9.168043   -4.800883    0.260371
   1 H     1.0000    0     1.008    9.006591   -6.896504    0.213723
   2 C     6.0000    0    12.011    4.366702    2.646597   -0.084642
   3 H     1.0000    0     1.008    6.122865    1.494747    0.009542
   4 C     6.0000    0    12.011   -4.490749    2.226090   -0.159271
   5 H     1.0000    0     1.008   -2.600647    3.144953   -0.213702
   6 C     6.0000    0    12.011   -8.699855   -5.567991    0.256010
   7 H     1.0000    0     1.008   -8.532780   -3.472783    0.210246
   8 C     6.0000    0    12.011   -3.864602  -12.995004   -0.054959
   9 H     1.0000    0     1.008   -5.623880  -11.848678    0.047891
  10 C     6.0000    0    12.011    4.993297  -12.609903   -0.216587
  11 H     1.0000    0     1.008    3.100360  -13.523074   -0.268621

--------------------------------
INTERNAL COORDINATES (ANGSTROEM)
--------------------------------
 C      0   0   0     0.000000000000     0.00000000     0.00000000
 H      1   0   0     1.112514910558     0.00000000     0.00000000
 C      1   2   0     4.692607522809   142.62770432     0.00000000
 H      3   1   2     1.112498517880    23.91098688   183.71696940
 C      3   1   2     4.692606619206   120.08690488     5.75804331
 H      5   3   1     1.112501041504    23.28947110   182.58060256
 C      5   3   1     4.692603147916   121.02336675     1.12560794
 H      7   5   3     1.112519424998    23.84005841   174.82969749
 C      7   5   3     4.692608117436   118.40326554   354.07875530
 H      9   7   5     1.112493526471    23.83830121   181.75266454
 C      2   1   3     3.701768850141   149.26662951   359.41903837
 H     11   2   1     1.112506046253   150.79189500   353.14432855

---------------------------
INTERNAL COORDINATES (A.U.)
---------------------------
 C      0   0   0     0.000000000000     0.00000000     0.00000000
 H      1   0   0     2.102348500859     0.00000000     0.00000000
 C      1   2   0     8.867743072088   142.62770432     0.00000000
 H      3   1   2     2.102317523187    23.91098688   183.71696940
 C      3   1   2     8.867741364525   120.08690488     5.75804331
 H      5   3   1     2.102322292145    23.28947110   182.58060256
 C      5   3   1     8.867734804739   121.02336675     1.12560794
 H      7   5   3     2.102357031913    23.84005841   174.82969749
 C      7   5   3     8.867744195770   118.40326554   354.07875530
 H      9   7   5     2.102308090791    23.83830121   181.75266454
 C      2   1   3     6.995329337847   149.26662951   359.41903837
 H     11   2   1     2.102331749749   150.79189500   353.14432855

---------------------
BASIS SET INFORMATION
---------------------
There are 2 groups of distinct atoms

 Group   1 Type C   : 10s4p1d contracted to 3s2p1d pattern {631/31/1}
 Group   2 Type H   : 4s contracted to 2s pattern {31}

Atom   0C    basis set group =>   1
Atom   1H    basis set group =>   2
Atom   2C    basis set group =>   1
Atom   3H    basis set group =>   2
Atom   4C    basis set group =>   1
Atom   5H    basis set group =>   2
Atom   6C    basis set group =>   1
Atom   7H    basis set group =>   2
Atom   8C    basis set group =>   1
Atom   9H    basis set group =>   2
Atom  10C    basis set group =>   1
Atom  11H    basis set group =>   2
------------------------------------------------------------------------------
                           ORCA GTO INTEGRAL CALCULATION
------------------------------------------------------------------------------

                         BASIS SET STATISTICS AND STARTUP INFO

 # of primitive gaussian shells          ...  114
 # of primitive gaussian functions       ...  186
 # of contracted shells                  ...   48
 # of contracted basis functions         ...   96
 Highest angular momentum                ...    2
 Maximum contraction depth               ...    6
 Integral package used                   ... LIBINT
 Integral threshhold            Thresh   ...  1.000e-10
 Primitive cut-off              TCut     ...  1.000e-11


------------------------------ INTEGRAL EVALUATION ----------------------------


 * One electron integrals 
 Pre-screening matrix                    ... done
 Shell pair data                         ... done (   0.000 sec)

-------------------------------------------------------------------------------
                                 ORCA SCF
-------------------------------------------------------------------------------

------------
SCF SETTINGS
------------
Hamiltonian:
 Density Functional     Method          .... DFT(GTOs)
 Exchange Functional    Exchange        .... WB97X-D3
 Correlation Functional Correlation     .... WB97X-D3
 Gradients option       PostSCFGGA      .... off
 Hybrid DFT is turned on
   Fraction HF Exchange ScalHFX         ....  0.195728
   Scaling of DF-GGA-X  ScalDFX         ....  0.000000
   Scaling of DF-GGA-C  ScalDFC         ....  1.000000
   Scaling of DF-LDA-C  ScalLDAC        ....  1.000000
   Perturbative correction              ....  0.000000
 Long-range corrected/Screened/Range-Separated Hybrid DFT is turned on
   Amount of maximum screened exact exchange              ....  0.804272
   Range separation parameter mu (erf(mu*r12)/r12)        ....  0.250000


General Settings:
 Integral files         IntName         .... Scan_42
 Hartree-Fock type      HFTyp           .... RHF
 Total Charge           Charge          ....    0
 Multiplicity           Mult            ....    1
 Number of Electrons    NEL             ....   42
 Basis Dimension        Dim             ....   96
 Nuclear Repulsion      ENuc            ....     78.1996618580 Eh

Convergence Acceleration:
 DIIS                   CNVDIIS         .... on
   Start iteration      DIISMaxIt       ....     0
   Startup error        DIISStart       ....  0.200000
   # of expansion vecs  DIISMaxEq       ....     5
   Bias factor          DIISBfac        ....   1.050
   Max. coefficient     DIISMaxC        ....  10.000
 Newton-Raphson         CNVNR           .... off
 SOSCF                  CNVSOSCF        .... off
 Level Shifting         CNVShift        .... off
 Zerner damping         CNVZerner       .... off
 Static damping         CNVDamp         .... off
 Fernandez-Rico         CNVRico         .... off

SCF Procedure:
 Maximum # iterations   MaxIter         ....   999
 SCF integral mode      SCFMode         .... Direct
   Integral package                     .... LIBINT
 Reset frequeny         DirectResetFreq ....    20
 Integral Threshold     Thresh          ....  1.000e-10 Eh
 Primitive CutOff       TCut            ....  1.000e-11 Eh

Convergence Tolerance:
 Convergence Check Mode ConvCheckMode   .... All-Criteria
 Convergence forced     ConvForced      .... 0
 Energy Change          TolE            ....  1.000e-06 Eh
 Max Density Change     TolMaxP         ....  1.000e-05
 RMS Density Change     TolRMSP         ....  1.000e-06
 DIIS Error             TolErr          ....  1.000e-06


Diagonalization of the overlap matrix:
Smallest eigenvalue                        ... 4.261e-02
Time for diagonalization                   ...    0.002 sec
Threshold for overlap eigenvalues          ... 1.000e-08
Number of eigenvalues below threshold      ... 0
Time for construction of square roots      ...    0.005 sec
Total time needed                          ...    0.008 sec

-------------------
DFT GRID GENERATION
-------------------

General Integration Accuracy     IntAcc      ...  4.340
Radial Grid Type                 RadialGrid  ... Gauss-Chebyshev
Angular Grid (max. acc.)         AngularGrid ... Lebedev-110
Angular grid pruning method      GridPruning ... 3 (G Style)
Weight generation scheme         WeightScheme... Becke
Basis function cutoff            BFCut       ...    1.0000e-10
Integration weight cutoff        WCut        ...    1.0000e-14
Grids for H and He will be reduced by one unit

# of grid points (after initial pruning)     ...  14700 (   0.0 sec)
# of grid points (after weights+screening)   ...  14422 (   0.0 sec)
nearest neighbour list constructed           ...    0.0 sec
Grid point re-assignment to atoms done       ...    0.0 sec
Grid point division into batches done        ...    0.0 sec
Reduced shell lists constructed in    0.1 sec

Total number of grid points                  ...    14422
Total number of batches                      ...      230
Average number of points per batch           ...       62
Average number of grid points per atom       ...     1202
Average number of shells per batch           ...    16.29 (33.94%)
Average number of basis functions per batch  ...    31.20 (32.50%)
Average number of large shells per batch     ...    11.12 (68.27%)
Average number of large basis fcns per batch ...    22.09 (70.81%)
Maximum spatial batch extension              ...  20.26, 22.75, 31.36 au
Average spatial batch extension              ...   4.99,  5.29,  6.49 au

Time for grid setup =    0.204 sec

------------------------------
INITIAL GUESS: MODEL POTENTIAL
------------------------------
Loading Hartree-Fock densities                     ... done
Calculating cut-offs                               ... done
Setting up the integral package                    ... done
Initializing the effective Hamiltonian             ... done
Starting the Coulomb interaction                   ... done (   0.0 sec)
Reading the grid                                   ... done
Mapping shells                                     ... done
Starting the XC term evaluation                    ... done (   0.1 sec)
  promolecular density results
     # of electrons  =     41.993950598
     EX              =    -31.541768481
     EC              =     -1.138974599
     EX+EC           =    -32.680743080
Transforming the Hamiltonian                       ... done (   0.0 sec)
Diagonalizing the Hamiltonian                      ... done (   0.0 sec)
Back transforming the eigenvectors                 ... done (   0.0 sec)
Now organizing SCF variables                       ... done
                      ------------------
                      INITIAL GUESS DONE (   0.4 sec)
                      ------------------
--------------
SCF ITERATIONS
--------------
ITER       Energy         Delta-E        Max-DP      RMS-DP      [F,P]   Gradient Norm
               ***  Starting incremental Fock matrix formation  ***
                             ****Resetting KDIIS****
                             ****Turning on KDIIS(Cayley)****
  0   -230.3419288796   0.000000000000 0.02023656  0.00065174  0.0433561   0.035268096
  1   -230.3559159090  -0.013987029473 0.01403894  0.00059258  0.0342405   0.029148109
  2   -230.3657560956  -0.009840186589 0.02660962  0.00104897  0.0282569   0.023805549
  3   -230.3788446444  -0.013088548726 0.04472216  0.00170753  0.0176615   0.014504633
  4   -230.3865951548  -0.007750510399 0.00200065  0.00011014  0.0020923   0.001070353
  5   -230.3866538606  -0.000058705866 0.00087158  0.00005230  0.0008403   0.000465146
  6   -230.3866738845  -0.000020023843 0.00329264  0.00016010  0.0008427   0.000386251
  7   -230.3867188468  -0.000044962302 0.00164908  0.00008349  0.0004489   0.000259342
  8   -230.3867324070  -0.000013560193 0.00165668  0.00007328  0.0002746   0.000133557
  9   -230.3867397546  -0.000007347681 0.00046195  0.00002104  0.0001852   0.000139603
 10   -230.3867411939  -0.000001439294 0.00086199  0.00004120  0.0001495   0.000093764
 11   -230.3867438573  -0.000002663390 0.00037522  0.00001762  0.0001349   0.000069743
                          ***Energy convergence achieved***
 12   -230.3867448569  -0.000000999585 0.00026886  0.00001170  0.0001423   0.000057060
 13   -230.3867456092  -0.000000752312 0.00012609  0.00000656  0.0001525   0.000051577
 14   -230.3867460638  -0.000000454558 0.00029730  0.00001515  0.0001572   0.000051413
 15   -230.3867450314   0.000001032351 0.00020361  0.00000988  0.0001463   0.000050565
                          ***Energy convergence achieved***
 16   -230.3867444738   0.000000557682 0.00061037  0.00003233  0.0001319   0.000054871
 17   -230.3867427247   0.000001749045 0.00089818  0.00004526  0.0001092   0.000049644
 18   -230.3867409569   0.000001767820 0.00092294  0.00004671  0.0000783   0.000050530
 19   -230.3867399530   0.000001003932 0.00063943  0.00003156  0.0000462   0.000033103
               *** Restarting incremental Fock matrix formation ***
                             ****Resetting KDIIS****
                          ***Energy convergence achieved***
                           ***RMSP convergence achieved***
                           ***MAXP convergence achieved***
                    *** KDIIS BlockDiag ( 0.002 sec) ***

               *****************************************************
               *                     SUCCESS                       *
               *           SCF CONVERGED AFTER  20 CYCLES          *
               *****************************************************

Setting up the final grid:

General Integration Accuracy     IntAcc      ...  4.670
Radial Grid Type                 RadialGrid  ... Gauss-Chebyshev
Angular Grid (max. acc.)         AngularGrid ... Lebedev-302
Angular grid pruning method      GridPruning ... 3 (G Style)
Weight generation scheme         WeightScheme... Becke
Basis function cutoff            BFCut       ...    1.0000e-10
Integration weight cutoff        WCut        ...    1.0000e-14
Grids for H and He will be reduced by one unit

# of grid points (after initial pruning)     ...  57636 (   0.0 sec)
# of grid points (after weights+screening)   ...  56336 (   0.1 sec)
nearest neighbour list constructed           ...    0.0 sec
Grid point re-assignment to atoms done       ...    0.0 sec
Grid point division into batches done        ...    0.2 sec
Reduced shell lists constructed in    0.6 sec

Total number of grid points                  ...    56336
Total number of batches                      ...      888
Average number of points per batch           ...       63
Average number of grid points per atom       ...     4695
Average number of shells per batch           ...    13.89 (28.95%)
Average number of basis functions per batch  ...    26.51 (27.61%)
Average number of large shells per batch     ...     9.56 (68.78%)
Average number of large basis fcns per batch ...    18.94 (71.46%)
Maximum spatial batch extension              ...  20.50, 20.70, 32.81 au
Average spatial batch extension              ...   3.31,  3.35,  3.79 au

Final grid set up in    0.7 sec
Final integration                            ... done (   0.4 sec)
Change in XC energy                          ...     0.000708247
Integrated number of electrons               ...    41.999984385
Previous integrated no of electrons          ...    42.000593658

----------------
TOTAL SCF ENERGY
----------------

Total Energy       :         -230.38603154 Eh           -6269.12263 eV

Components:
Nuclear Repulsion  :           78.19966186 Eh            2127.92098 eV
Electronic Energy  :         -308.58569340 Eh           -8397.04361 eV
One Electron Energy:         -462.15625707 Eh          -12575.91110 eV
Two Electron Energy:          153.57056367 Eh            4178.86749 eV

Virial components:
Potential Energy   :         -459.82445966 Eh          -12512.45967 eV
Kinetic Energy     :          229.43842812 Eh            6243.33703 eV
Virial Ratio       :            2.00413010


DFT components:
N(Alpha)           :       20.999992192454 electrons
N(Beta)            :       20.999992192454 electrons
N(Total)           :       41.999984384908 electrons
E(XC)              :      -22.782023221754 Eh       

---------------
SCF CONVERGENCE
---------------

  Last Energy change         ...    1.6629e-07  Tolerance :   1.0000e-06
  Last MAX-Density change    ...    5.6006e-06  Tolerance :   1.0000e-05
  Last RMS-Density change    ...    3.6865e-07  Tolerance :   1.0000e-06
  Last DIIS Error            ...    3.5753e-05  Tolerance :   1.0000e-06

             **** THE GBW FILE WAS UPDATED (Scan_42.gbw) ****
             **** DENSITY FILE WAS UPDATED (Scan_42.scfp.tmp) ****
             **** ENERGY FILE WAS UPDATED (Scan_42.en.tmp) ****
----------------
ORBITAL ENERGIES
----------------

  NO   OCC          E(Eh)            E(eV) 
   0   2.0000     -10.391488      -282.7668 
   1   2.0000     -10.391486      -282.7667 
   2   2.0000     -10.391355      -282.7631 
   3   2.0000     -10.391350      -282.7630 
   4   2.0000     -10.391305      -282.7618 
   5   2.0000     -10.391291      -282.7614 
   6   2.0000      -0.738407       -20.0931 
   7   2.0000      -0.737822       -20.0771 
   8   2.0000      -0.737651       -20.0725 
   9   2.0000      -0.736254       -20.0345 
  10   2.0000      -0.736092       -20.0301 
  11   2.0000      -0.735522       -20.0146 
  12   2.0000      -0.407647       -11.0927 
  13   2.0000      -0.405169       -11.0252 
  14   2.0000      -0.405072       -11.0226 
  15   2.0000      -0.400006       -10.8847 
  16   2.0000      -0.399776       -10.8785 
  17   2.0000      -0.397097       -10.8055 
  18   2.0000      -0.229562        -6.2467 
  19   2.0000      -0.210268        -5.7217 
  20   2.0000      -0.210118        -5.7176 
  21   0.0000      -0.114663        -3.1201 
  22   0.0000      -0.114489        -3.1154 
  23   0.0000      -0.095344        -2.5945 
  24   0.0000      -0.030612        -0.8330 
  25   0.0000      -0.030334        -0.8254 
  26   0.0000      -0.030196        -0.8217 
  27   0.0000      -0.029643        -0.8066 
  28   0.0000      -0.029491        -0.8025 
  29   0.0000      -0.029220        -0.7951 
  30   0.0000       0.197169         5.3652 
  31   0.0000       0.212266         5.7760 
  32   0.0000       0.212922         5.7939 
  33   0.0000       0.246085         6.6963 
  34   0.0000       0.246617         6.7108 
  35   0.0000       0.264854         7.2070 
  36   0.0000       0.637447        17.3458 
  37   0.0000       0.640125        17.4187 
  38   0.0000       0.640317        17.4239 
  39   0.0000       0.647117        17.6090 
  40   0.0000       0.647619        17.6226 
  41   0.0000       0.652922        17.7669 
  42   0.0000       0.653717        17.7885 
  43   0.0000       0.654880        17.8202 
  44   0.0000       0.654963        17.8225 
  45   0.0000       0.658845        17.9281 
  46   0.0000       0.658905        17.9297 
  47   0.0000       0.660879        17.9834 
  48   0.0000       0.663899        18.0656 
  49   0.0000       0.667676        18.1684 
  50   0.0000       0.668027        18.1779 
  51   0.0000       0.670481        18.2447 
  52   0.0000       0.670918        18.2566 
  53   0.0000       0.671569        18.2743 
  54   0.0000       0.749234        20.3877 
  55   0.0000       0.749611        20.3980 
  56   0.0000       0.749929        20.4066 
  57   0.0000       0.751019        20.4363 
  58   0.0000       0.751590        20.4518 
  59   0.0000       0.752132        20.4666 
  60   0.0000       0.985426        26.8148 
  61   0.0000       0.997623        27.1467 
  62   0.0000       0.998585        27.1729 
  63   0.0000       1.027777        27.9672 
  64   0.0000       1.028968        27.9996 
  65   0.0000       1.046819        28.4854 
  66   0.0000       1.754201        47.7342 
  67   0.0000       1.754212        47.7345 
  68   0.0000       1.754278        47.7363 
  69   0.0000       1.754296        47.7368 
  70   0.0000       1.754549        47.7437 
  71   0.0000       1.754560        47.7440 
  72   0.0000       1.767329        48.0915 
  73   0.0000       1.767410        48.0937 
  74   0.0000       1.767798        48.1042 
  75   0.0000       1.767961        48.1087 
  76   0.0000       1.768484        48.1229 
  77   0.0000       1.768517        48.1238 
  78   0.0000       1.779493        48.4225 
  79   0.0000       1.779543        48.4238 
  80   0.0000       1.779773        48.4301 
  81   0.0000       1.779949        48.4349 
  82   0.0000       1.780119        48.4395 
  83   0.0000       1.780185        48.4413 
  84   0.0000       1.783231        48.5242 
  85   0.0000       1.783257        48.5249 
  86   0.0000       1.784135        48.5488 
  87   0.0000       1.784245        48.5518 
  88   0.0000       1.784579        48.5609 
  89   0.0000       1.784587        48.5611 
  90   0.0000       2.205548        60.0160 
  91   0.0000       2.206260        60.0354 
  92   0.0000       2.206493        60.0417 
  93   0.0000       2.207719        60.0751 
  94   0.0000       2.207861        60.0789 
  95   0.0000       2.208409        60.0939 

                    ********************************
                    * MULLIKEN POPULATION ANALYSIS *
                    ********************************

-----------------------
MULLIKEN ATOMIC CHARGES
-----------------------
   0 C :   -0.166945
   1 H :    0.167772
   2 C :   -0.169185
   3 H :    0.168766
   4 C :   -0.169058
   5 H :    0.168623
   6 C :   -0.166940
   7 H :    0.167804
   8 C :   -0.169199
   9 H :    0.168754
  10 C :   -0.169030
  11 H :    0.168639
Sum of atomic charges:   -0.0000000

--------------------------------
MULLIKEN REDUCED ORBITAL CHARGES
--------------------------------
  0 C s       :     3.920561  s :     3.920561
      pz      :     0.006112  p :     2.231893
      px      :     0.991369
      py      :     1.234412
      dz2     :     0.003589  d :     0.014491
      dxz     :     0.000001
      dyz     :     0.000023
      dx2y2   :     0.010091
      dxy     :     0.000786
  1 H s       :     0.832228  s :     0.832228
  2 C s       :     3.920861  s :     3.920861
      pz      :     0.003113  p :     2.233889
      px      :     1.177781
      py      :     1.052995
      dz2     :     0.003535  d :     0.014435
      dxz     :     0.000057
      dyz     :     0.000028
      dx2y2   :     0.002077
      dxy     :     0.008737
  3 H s       :     0.831234  s :     0.831234
  4 C s       :     3.921276  s :     3.921276
      pz      :     0.003131  p :     2.233328
      px      :     1.177626
      py      :     1.052571
      dz2     :     0.003568  d :     0.014454
      dxz     :     0.000022
      dyz     :     0.000007
      dx2y2   :     0.004310
      dxy     :     0.006547
  5 H s       :     0.831377  s :     0.831377
  6 C s       :     3.920571  s :     3.920571
      pz      :     0.004953  p :     2.231878
      px      :     0.992592
      py      :     1.234333
      dz2     :     0.003590  d :     0.014490
      dxz     :     0.000001
      dyz     :     0.000022
      dx2y2   :     0.010074
      dxy     :     0.000803
  7 H s       :     0.832196  s :     0.832196
  8 C s       :     3.920845  s :     3.920845
      pz      :     0.003168  p :     2.233921
      px      :     1.178039
      py      :     1.052714
      dz2     :     0.003526  d :     0.014434
      dxz     :     0.000069
      dyz     :     0.000033
      dx2y2   :     0.002118
      dxy     :     0.008688
  9 H s       :     0.831246  s :     0.831246
 10 C s       :     3.921298  s :     3.921298
      pz      :     0.003793  p :     2.233276
      px      :     1.178456
      py      :     1.051027
      dz2     :     0.003570  d :     0.014456
      dxz     :     0.000020
      dyz     :     0.000006
      dx2y2   :     0.004368
      dxy     :     0.006492
 11 H s       :     0.831361  s :     0.831361


                     *******************************
                     * LOEWDIN POPULATION ANALYSIS *
                     *******************************

----------------------
LOEWDIN ATOMIC CHARGES
----------------------
   0 C :   -0.114175
   1 H :    0.114993
   2 C :   -0.115862
   3 H :    0.115419
   4 C :   -0.115806
   5 H :    0.115410
   6 C :   -0.114169
   7 H :    0.115011
   8 C :   -0.115874
   9 H :    0.115419
  10 C :   -0.115781
  11 H :    0.115415

-------------------------------
LOEWDIN REDUCED ORBITAL CHARGES
-------------------------------
  0 C s       :     3.754285  s :     3.754285
      pz      :     0.006177  p :     2.340289
      px      :     0.992749
      py      :     1.341363
      dz2     :     0.004886  d :     0.019601
      dxz     :     0.000001
      dyz     :     0.000031
      dx2y2   :     0.013805
      dxy     :     0.000877
  1 H s       :     0.885007  s :     0.885007
  2 C s       :     3.754256  s :     3.754256
      pz      :     0.003337  p :     2.342076
      px      :     1.249824
      py      :     1.088914
      dz2     :     0.004817  d :     0.019531
      dxz     :     0.000079
      dyz     :     0.000038
      dx2y2   :     0.002668
      dxy     :     0.011929
  3 H s       :     0.884581  s :     0.884581
  4 C s       :     3.754446  s :     3.754446
      pz      :     0.003196  p :     2.341800
      px      :     1.267887
      py      :     1.070717
      dz2     :     0.004864  d :     0.019560
      dxz     :     0.000030
      dyz     :     0.000009
      dx2y2   :     0.005769
      dxy     :     0.008887
  5 H s       :     0.884590  s :     0.884590
  6 C s       :     3.754291  s :     3.754291
      pz      :     0.005014  p :     2.340277
      px      :     0.994030
      py      :     1.341233
      dz2     :     0.004887  d :     0.019600
      dxz     :     0.000001
      dyz     :     0.000029
      dx2y2   :     0.013782
      dxy     :     0.000901
  7 H s       :     0.884989  s :     0.884989
  8 C s       :     3.754247  s :     3.754247
      pz      :     0.003431  p :     2.342098
      px      :     1.250292
      py      :     1.088375
      dz2     :     0.004806  d :     0.019529
      dxz     :     0.000095
      dyz     :     0.000044
      dx2y2   :     0.002725
      dxy     :     0.011860
  9 H s       :     0.884581  s :     0.884581
 10 C s       :     3.754460  s :     3.754460
      pz      :     0.003851  p :     2.341760
      px      :     1.268906
      py      :     1.069002
      dz2     :     0.004866  d :     0.019562
      dxz     :     0.000028
      dyz     :     0.000008
      dx2y2   :     0.005850
      dxy     :     0.008810
 11 H s       :     0.884585  s :     0.884585


                      *****************************
                      * MAYER POPULATION ANALYSIS *
                      *****************************

  NA   - Mulliken gross atomic population
  ZA   - Total nuclear charge
  QA   - Mulliken gross atomic charge
  VA   - Mayer's total valence
  BVA  - Mayer's bonded valence
  FA   - Mayer's free valence

  ATOM       NA         ZA         QA         VA         BVA        FA
  0 C      6.1669     6.0000    -0.1669     1.9066     1.9066    -0.0000
  1 H      0.8322     1.0000     0.1678     0.9089     0.9089    -0.0000
  2 C      6.1692     6.0000    -0.1692     1.9063     1.9063     0.0000
  3 H      0.8312     1.0000     0.1688     0.9087     0.9087     0.0000
  4 C      6.1691     6.0000    -0.1691     1.9062     1.9062     0.0000
  5 H      0.8314     1.0000     0.1686     0.9086     0.9086     0.0000
  6 C      6.1669     6.0000    -0.1669     1.9067     1.9067     0.0000
  7 H      0.8322     1.0000     0.1678     0.9089     0.9089     0.0000
  8 C      6.1692     6.0000    -0.1692     1.9063     1.9063    -0.0000
  9 H      0.8312     1.0000     0.1688     0.9088     0.9088    -0.0000
 10 C      6.1690     6.0000    -0.1690     1.9062     1.9062    -0.0000
 11 H      0.8314     1.0000     0.1686     0.9085     0.9085     0.0000

  Mayer bond orders larger than 0.1
B(  0-C ,  1-H ) :   0.9032 B(  0-C ,  2-C ) :   0.4467 B(  0-C ,  6-C ) :   0.1079 
B(  0-C , 10-C ) :   0.4430 B(  2-C ,  3-H ) :   0.9029 B(  2-C ,  4-C ) :   0.4396 
B(  2-C ,  8-C ) :   0.1113 B(  4-C ,  5-H ) :   0.9027 B(  4-C ,  6-C ) :   0.4447 
B(  4-C , 10-C ) :   0.1135 B(  6-C ,  7-H ) :   0.9032 B(  6-C ,  8-C ) :   0.4450 
B(  8-C ,  9-H ) :   0.9029 B(  8-C , 10-C ) :   0.4413 B( 10-C , 11-H ) :   0.9027 


-------
TIMINGS
-------

Total SCF time: 0 days 0 hours 0 min 19 sec 

Total time                  ....      19.791 sec
Sum of individual times     ....      19.492 sec  ( 98.5%)

Fock matrix formation       ....      18.276 sec  ( 92.3%)
  XC integration            ....       3.341 sec  ( 18.3% of F)
    Basis function eval.    ....       1.281 sec  ( 38.3% of XC)
    Density eval.           ....       0.188 sec  (  5.6% of XC)
    XC-Functional eval.     ....       1.126 sec  ( 33.7% of XC)
    XC-Potential eval.      ....       0.128 sec  (  3.8% of XC)
Diagonalization             ....       0.037 sec  (  0.2%)
Density matrix formation    ....       0.003 sec  (  0.0%)
Population analysis         ....       0.029 sec  (  0.1%)
Initial guess               ....       0.239 sec  (  1.2%)
Orbital Transformation      ....       0.000 sec  (  0.0%)
Orbital Orthonormalization  ....       0.000 sec  (  0.0%)
DIIS solution               ....       0.000 sec  (  0.0%)
Grid generation             ....       0.909 sec  (  4.6%)


-------------------------------------------------------------------------------
                          DFT DISPERSION CORRECTION                            
                                                                               
                              DFTD3 V3.1  Rev 1                                
                              USING zero damping                               
-------------------------------------------------------------------------------
The omegaB97X-D3 functional is recognized. Fit by Chai et al.
Active option DFTDOPT                   ...         3   

molecular C6(AA) [au] = 2491.642699 


            DFT-D V3
 parameters
 s6 scaling factor         :     1.0000 
 rs6 scaling factor        :     1.2810 
 s8 scaling factor         :     1.0000 
 rs8 scaling factor        :     1.0940 
 Damping factor alpha6     :    14.0000 
 Damping factor alpha8     :    16.0000 
 ad hoc parameters k1-k3   :    16.0000     1.3333    -4.0000 

 Edisp/kcal,au: -0.849847252352  -0.001354317659 
 E6   /kcal   :  -0.580249944 
 E8   /kcal   :  -0.269597309 
 % E8         :  31.723031159 

-------------------------   ----------------
Dispersion correction           -0.001354318
-------------------------   ----------------


-------------------------   --------------------
FINAL SINGLE POINT ENERGY      -230.387385857079
-------------------------   --------------------


                            ***************************************
                            *     ORCA property calculations      *
                            ***************************************

                                    ---------------------
                                    Active property flags
                                    ---------------------
   (+) Dipole Moment


------------------------------------------------------------------------------
                       ORCA ELECTRIC PROPERTIES CALCULATION
------------------------------------------------------------------------------

Dipole Moment Calculation                       ... on
Quadrupole Moment Calculation                   ... off
Polarizability Calculation                      ... off
GBWName                                         ... Scan_42.gbw
Electron density file                           ... Scan_42.scfp.tmp

-------------
DIPOLE MOMENT
-------------
                                X             Y             Z
Electronic contribution:     -0.00000       0.00002       0.00163
Nuclear contribution   :     -0.00015      -0.00011      -0.00084
                        -----------------------------------------
Total Dipole Moment    :     -0.00015      -0.00009       0.00079
                        -----------------------------------------
Magnitude (a.u.)       :      0.00081
Magnitude (Debye)      :      0.00205


Timings for individual modules:

Sum of individual times         ...       20.242 sec (=   0.337 min)
GTO integral calculation        ...        0.424 sec (=   0.007 min)   2.1 %
SCF iterations                  ...       19.818 sec (=   0.330 min)  97.9 %
                             ****ORCA TERMINATED NORMALLY****
TOTAL RUN TIME: 0 days 0 hours 0 minutes 20 seconds 650 msec
