
                                 *****************
                                 * O   R   C   A *
                                 *****************

           --- An Ab Initio, DFT and Semiempirical electronic structure package ---

                  #######################################################
                  #                        -***-                        #
                  #  Department of molecular theory and spectroscopy    #
                  #              Directorship: Frank Neese              #
                  # Max Planck Institute for Chemical Energy Conversion #
                  #                  D-45470 Muelheim/Ruhr              #
                  #                       Germany                       #
                  #                                                     #
                  #                  All rights reserved                #
                  #                        -***-                        #
                  #######################################################


                         Program Version 4.0.0.2 - RELEASE -


 With contributions from (in alphabetic order):
   Daniel Aravena         : Magnetic Properties
   Michael Atanasov       : Ab Initio Ligand Field Theory
   Ute Becker             : Parallelization
   Martin Brehm           : Molecular dynamics
   Dmytro Bykov           : SCF Hessian
   Vijay G. Chilkuri      : MRCI spin determinant printing
   Dipayan Datta          : RHF DLPNO-CCSD density
   Achintya Kumar Dutta   : EOM-CC, STEOM-CC
   Dmitry Ganyushin       : Spin-Orbit,Spin-Spin,Magnetic field MRCI
   Yang Guo               : DLPNO-NEVPT2, CIM, IAO-localization
   Andreas Hansen         : Spin unrestricted coupled pair/coupled cluster methods
   Lee Huntington         : MR-EOM, pCC
   Robert Izsak           : Overlap fitted RIJCOSX, COSX-SCS-MP3, EOM
   Christian Kollmar      : KDIIS, OOCD, Brueckner-CCSD(T), CCSD density
   Simone Kossmann        : Meta GGA functionals, TD-DFT gradient, OOMP2, MP2 Hessian
   Martin Krupicka        : AUTO-CI
   Dagmar Lenk            : GEPOL surface
   Dimitrios Liakos       : Extrapolation schemes; parallel MDCI
   Dimitrios Manganas     : ROCIS; embedding schemes
   Dimitrios Pantazis     : SARC Basis sets
   Taras Petrenko         : DFT Hessian,TD-DFT gradient, ASA, ECA, R-Raman, ABS, FL, XAS/XES, NRVS
   Peter Pinski           : DLPNO-MP2
   Christoph Reimann      : Effective Core Potentials
   Marius Retegan         : Local ZFS, SOC
   Christoph Riplinger    : Optimizer, TS searches, QM/MM, DLPNO-CCSD(T), (RO)-DLPNO pert. Triples
   Tobias Risthaus        : Range-separated hybrids, TD-DFT gradient, RPA, STAB
   Michael Roemelt        : Restricted open shell CIS
   Masaaki Saitow         : Open-shell DLPNO
   Barbara Sandhoefer     : DKH picture change effects
   Kantharuban Sivalingam : CASSCF convergence, NEVPT2, FIC-MRCI
   Georgi Stoychev        : AutoAux
   Boris Wezisla          : Elementary symmetry handling
   Frank Wennmohs         : Technical directorship


 We gratefully acknowledge several colleagues who have allowed us to
 interface, adapt or use parts of their codes:
   Stefan Grimme, W. Hujo, H. Kruse,             : VdW corrections, initial TS optimization,
                  C. Bannwarth                     DFT functionals, gCP, sTDA/sTD-DF
   Ed Valeev                                     : LibInt (2-el integral package), F12 methods
   Garnet Chan, S. Sharma, J. Yang, R. Olivares  : DMRG
   Ulf Ekstrom                                   : XCFun DFT Library
   Mihaly Kallay                                 : mrcc  (arbitrary order and MRCC methods)
   Jiri Pittner, Ondrej Demel                    : Mk-CCSD
   Frank Weinhold                                : gennbo (NPA and NBO analysis)
   Christopher J. Cramer and Donald G. Truhlar   : smd solvation model


 Your calculation uses the libint2 library for the computation of 2-el integrals
 For citations please refer to: http://libint.valeyev.net

 This ORCA versions uses:
   CBLAS   interface :  Fast vector & matrix operations
   LAPACKE interface :  Fast linear algebra routines
   SCALAPACK package :  Parallel linear algebra routines


Your calculation utilizes the atom-pairwise dispersion correction
with the zero-damping scheme (D30)
Cite in your paper:
S.Grimme, J.Antony, S.Ehrlich and H.Krieg, J.Chem.Phys., 132, (2010), 154104 
   

XCFun DFT library Copyright 2009-2010 Ulf Ekstrom and contributors.
See http://admol.org/xcfun for more information. This is free soft-
ware; see the source code for copying conditions. There is ABSOLUTELY
NO WARRANTY; not even for MERCHANTABILITY or FITNESS FOR A PARTICULAR
PURPOSE. For details see the documentation. Scientific users of this 
library should cite U. Ekstrom, L. Visscher, R. Bast, A. J. Thorvald-
sen and K. Ruud; J.Chem.Theor.Comp. 2010, DOI: 10.1021/ct100117s
XCFun Version 0.99 
Your calculation utilizes the basis: 6-31G(d)
   H-He, Li-Ne : W. J. Hehre, R. Ditchfield and J.A. Pople, J. Chem. Phys. 56, 2257 (1972).
                 Note: He and Ne are unpublished basis sets taken from the Gaussian program.
                 Note: Li and B from J. D. Dill and J. A. Pople, J. Chem. Phys. 62, 2921 (1975).
   Na - Ar     : M. M. Francl, W. J. Pietro, W. J. Hehre, J. S. Binkley, M. S. Gordon, 
                 D. J. DeFrees and J. A. Pople, J. Chem. Phys. 77, 3654 (1982).
   K - Zn      : V. A. Rassolov, J. A. Pople, M. A. Ratner, and T. L. Windus, J. Chem. Phys. 109, 1223 (1998).

================================================================================
                                        WARNINGS
                       Please study these warnings very carefully!
================================================================================

Warning: TCutStore was < 0. Adjusted to Thresh (uncritical)

INFO   : the flag for use of LIBINT has been found!

================================================================================
                                       INPUT FILE
================================================================================
NAME = initial43.inp
|  1> ! WB97X-D3 6-31G(d) VerySlowConv
|  2> ! KDIIS NOSOSCF
|  3> %base "Scan_43"
|  4> 
|  5> %scf
|  6> maxiter 999
|  7> end
|  8> 
|  9> * xyz 0 1
| 10> C          4.954975099438   -2.548328316018    0.141089637270
| 11> H          4.869469437574   -3.657288504487    0.115994178247
| 12> C          2.369081767687    1.485279650910   -0.044684727987
| 13> H          3.298358590685    0.875650420586    0.005303222304
| 14> C         -2.420818518982    1.270007546742   -0.087757782460
| 15> H         -1.420518814788    1.756075471839   -0.116786397110
| 16> C         -4.707128460410   -2.938618452125    0.139328394597
| 17> H         -4.618634773923   -1.829863361230    0.115308561177
| 18> C         -2.103410673529   -6.961498220900   -0.029340850150
| 19> H         -3.034308766422   -6.354724203330    0.024910236941
| 20> C          2.686660369029   -6.764832802240   -0.118079960057
| 21> H          1.684884743661   -7.247969229740   -0.145284512713
| 22> **                         ****END OF INPUT****
================================================================================

                       ****************************
                       * Single Point Calculation *
                       ****************************

---------------------------------
CARTESIAN COORDINATES (ANGSTROEM)
---------------------------------
  C      4.954975   -2.548328    0.141090
  H      4.869469   -3.657289    0.115994
  C      2.369082    1.485280   -0.044685
  H      3.298359    0.875650    0.005303
  C     -2.420819    1.270008   -0.087758
  H     -1.420519    1.756075   -0.116786
  C     -4.707128   -2.938618    0.139328
  H     -4.618635   -1.829863    0.115309
  C     -2.103411   -6.961498   -0.029341
  H     -3.034309   -6.354724    0.024910
  C      2.686660   -6.764833   -0.118080
  H      1.684885   -7.247969   -0.145285

----------------------------
CARTESIAN COORDINATES (A.U.)
----------------------------
  NO LB      ZA    FRAG     MASS         X           Y           Z
   0 C     6.0000    0    12.011    9.363546   -4.815643    0.266621
   1 H     1.0000    0     1.008    9.201964   -6.911274    0.219197
   2 C     6.0000    0    12.011    4.476916    2.806772   -0.084442
   3 H     1.0000    0     1.008    6.232994    1.654739    0.010022
   4 C     6.0000    0    12.011   -4.574684    2.399966   -0.165838
   5 H     1.0000    0     1.008   -2.684392    3.318502   -0.220694
   6 C     6.0000    0    12.011   -8.895184   -5.553184    0.263293
   7 H     1.0000    0     1.008   -8.727955   -3.457941    0.217902
   8 C     6.0000    0    12.011   -3.974870  -13.155325   -0.055446
   9 H     1.0000    0     1.008   -5.734013  -12.008688    0.047074
  10 C     6.0000    0    12.011    5.077052  -12.783681   -0.223139
  11 H     1.0000    0     1.008    3.183971  -13.696677   -0.274548

--------------------------------
INTERNAL COORDINATES (ANGSTROEM)
--------------------------------
 C      0   0   0     0.000000000000     0.00000000     0.00000000
 H      1   0   0     1.112534808392     0.00000000     0.00000000
 C      1   2   0     4.794929579133   142.76857540     0.00000000
 H      3   1   2     1.112520564934    24.05189295   183.72376656
 C      3   1   2     4.794928792285   120.08687442     5.75957726
 H      5   3   1     1.112521544280    23.42714980   182.68641287
 C      5   3   1     4.794925867876   121.01746227     1.20998650
 H      7   5   3     1.112540307823    23.97987819   174.70322585
 C      7   5   3     4.794930370909   118.41233065   353.99842610
 H      9   7   5     1.112514785610    23.98203199   181.83614447
 C      2   1   3     3.804770386560   149.27235894   359.35190108
 H     11   2   1     1.112526538490   150.78396125   353.14972138

---------------------------
INTERNAL COORDINATES (A.U.)
---------------------------
 C      0   0   0     0.000000000000     0.00000000     0.00000000
 H      1   0   0     2.102386102315     0.00000000     0.00000000
 C      1   2   0     9.061103736000   142.76857540     0.00000000
 H      3   1   2     2.102359186081    24.05189295   183.72376656
 C      3   1   2     9.061102249073   120.08687442     5.75957726
 H      5   3   1     2.102361036776    23.42714980   182.68641287
 C      5   3   1     9.061096722739   121.01746227     1.20998650
 H      7   5   3     2.102396494734    23.97987819   174.70322585
 C      7   5   3     9.061105232239   118.41233065   353.99842610
 H      9   7   5     2.102348264741    23.98203199   181.83614447
 C      2   1   3     7.189974033052   149.27235894   359.35190108
 H     11   2   1     2.102370474465   150.78396125   353.14972138

---------------------
BASIS SET INFORMATION
---------------------
There are 2 groups of distinct atoms

 Group   1 Type C   : 10s4p1d contracted to 3s2p1d pattern {631/31/1}
 Group   2 Type H   : 4s contracted to 2s pattern {31}

Atom   0C    basis set group =>   1
Atom   1H    basis set group =>   2
Atom   2C    basis set group =>   1
Atom   3H    basis set group =>   2
Atom   4C    basis set group =>   1
Atom   5H    basis set group =>   2
Atom   6C    basis set group =>   1
Atom   7H    basis set group =>   2
Atom   8C    basis set group =>   1
Atom   9H    basis set group =>   2
Atom  10C    basis set group =>   1
Atom  11H    basis set group =>   2
------------------------------------------------------------------------------
                           ORCA GTO INTEGRAL CALCULATION
------------------------------------------------------------------------------

                         BASIS SET STATISTICS AND STARTUP INFO

 # of primitive gaussian shells          ...  114
 # of primitive gaussian functions       ...  186
 # of contracted shells                  ...   48
 # of contracted basis functions         ...   96
 Highest angular momentum                ...    2
 Maximum contraction depth               ...    6
 Integral package used                   ... LIBINT
 Integral threshhold            Thresh   ...  1.000e-10
 Primitive cut-off              TCut     ...  1.000e-11


------------------------------ INTEGRAL EVALUATION ----------------------------


 * One electron integrals 
 Pre-screening matrix                    ... done
 Shell pair data                         ... done (   0.000 sec)

-------------------------------------------------------------------------------
                                 ORCA SCF
-------------------------------------------------------------------------------

------------
SCF SETTINGS
------------
Hamiltonian:
 Density Functional     Method          .... DFT(GTOs)
 Exchange Functional    Exchange        .... WB97X-D3
 Correlation Functional Correlation     .... WB97X-D3
 Gradients option       PostSCFGGA      .... off
 Hybrid DFT is turned on
   Fraction HF Exchange ScalHFX         ....  0.195728
   Scaling of DF-GGA-X  ScalDFX         ....  0.000000
   Scaling of DF-GGA-C  ScalDFC         ....  1.000000
   Scaling of DF-LDA-C  ScalLDAC        ....  1.000000
   Perturbative correction              ....  0.000000
 Long-range corrected/Screened/Range-Separated Hybrid DFT is turned on
   Amount of maximum screened exact exchange              ....  0.804272
   Range separation parameter mu (erf(mu*r12)/r12)        ....  0.250000


General Settings:
 Integral files         IntName         .... Scan_43
 Hartree-Fock type      HFTyp           .... RHF
 Total Charge           Charge          ....    0
 Multiplicity           Mult            ....    1
 Number of Electrons    NEL             ....   42
 Basis Dimension        Dim             ....   96
 Nuclear Repulsion      ENuc            ....     76.8754267880 Eh

Convergence Acceleration:
 DIIS                   CNVDIIS         .... on
   Start iteration      DIISMaxIt       ....     0
   Startup error        DIISStart       ....  0.200000
   # of expansion vecs  DIISMaxEq       ....     5
   Bias factor          DIISBfac        ....   1.050
   Max. coefficient     DIISMaxC        ....  10.000
 Newton-Raphson         CNVNR           .... off
 SOSCF                  CNVSOSCF        .... off
 Level Shifting         CNVShift        .... off
 Zerner damping         CNVZerner       .... off
 Static damping         CNVDamp         .... off
 Fernandez-Rico         CNVRico         .... off

SCF Procedure:
 Maximum # iterations   MaxIter         ....   999
 SCF integral mode      SCFMode         .... Direct
   Integral package                     .... LIBINT
 Reset frequeny         DirectResetFreq ....    20
 Integral Threshold     Thresh          ....  1.000e-10 Eh
 Primitive CutOff       TCut            ....  1.000e-11 Eh

Convergence Tolerance:
 Convergence Check Mode ConvCheckMode   .... All-Criteria
 Convergence forced     ConvForced      .... 0
 Energy Change          TolE            ....  1.000e-06 Eh
 Max Density Change     TolMaxP         ....  1.000e-05
 RMS Density Change     TolRMSP         ....  1.000e-06
 DIIS Error             TolErr          ....  1.000e-06


Diagonalization of the overlap matrix:
Smallest eigenvalue                        ... 4.359e-02
Time for diagonalization                   ...    0.002 sec
Threshold for overlap eigenvalues          ... 1.000e-08
Number of eigenvalues below threshold      ... 0
Time for construction of square roots      ...    0.005 sec
Total time needed                          ...    0.007 sec

-------------------
DFT GRID GENERATION
-------------------

General Integration Accuracy     IntAcc      ...  4.340
Radial Grid Type                 RadialGrid  ... Gauss-Chebyshev
Angular Grid (max. acc.)         AngularGrid ... Lebedev-110
Angular grid pruning method      GridPruning ... 3 (G Style)
Weight generation scheme         WeightScheme... Becke
Basis function cutoff            BFCut       ...    1.0000e-10
Integration weight cutoff        WCut        ...    1.0000e-14
Grids for H and He will be reduced by one unit

# of grid points (after initial pruning)     ...  14700 (   0.0 sec)
# of grid points (after weights+screening)   ...  14426 (   0.0 sec)
nearest neighbour list constructed           ...    0.0 sec
Grid point re-assignment to atoms done       ...    0.0 sec
Grid point division into batches done        ...    0.0 sec
Reduced shell lists constructed in    0.1 sec

Total number of grid points                  ...    14426
Total number of batches                      ...      230
Average number of points per batch           ...       62
Average number of grid points per atom       ...     1202
Average number of shells per batch           ...    15.87 (33.06%)
Average number of basis functions per batch  ...    30.29 (31.55%)
Average number of large shells per batch     ...    10.86 (68.44%)
Average number of large basis fcns per batch ...    21.61 (71.34%)
Maximum spatial batch extension              ...  20.10, 20.82, 31.36 au
Average spatial batch extension              ...   4.96,  5.39,  6.66 au

Time for grid setup =    0.188 sec

------------------------------
INITIAL GUESS: MODEL POTENTIAL
------------------------------
Loading Hartree-Fock densities                     ... done
Calculating cut-offs                               ... done
Setting up the integral package                    ... done
Initializing the effective Hamiltonian             ... done
Starting the Coulomb interaction                   ... done (   0.0 sec)
Reading the grid                                   ... done
Mapping shells                                     ... done
Starting the XC term evaluation                    ... done (   0.1 sec)
  promolecular density results
     # of electrons  =     41.994047908
     EX              =    -31.541571888
     EC              =     -1.138750244
     EX+EC           =    -32.680322132
Transforming the Hamiltonian                       ... done (   0.0 sec)
Diagonalizing the Hamiltonian                      ... done (   0.0 sec)
Back transforming the eigenvectors                 ... done (   0.0 sec)
Now organizing SCF variables                       ... done
                      ------------------
                      INITIAL GUESS DONE (   0.4 sec)
                      ------------------
--------------
SCF ITERATIONS
--------------
ITER       Energy         Delta-E        Max-DP      RMS-DP      [F,P]   Gradient Norm
               ***  Starting incremental Fock matrix formation  ***
                             ****Resetting KDIIS****
                             ****Turning on KDIIS(Cayley)****
  0   -230.3212504950   0.000000000000 0.02358433  0.00075833  0.0542622   0.039263894
  1   -230.3402867498  -0.019036254784 0.01827450  0.00075535  0.0436209   0.032034441
  2   -230.3543948264  -0.014108076595 0.02981596  0.00120887  0.0324057   0.026007983
  3   -230.3710130021  -0.016618175670 0.04894733  0.00189339  0.0196419   0.016134713
  4   -230.3808946336  -0.009881631517 0.00407166  0.00016221  0.0021610   0.001273926
  5   -230.3810050900  -0.000110456457 0.00248882  0.00012955  0.0008299   0.000558129
  6   -230.3810442854  -0.000039195354 0.00120136  0.00006268  0.0005230   0.000266757
  7   -230.3810555312  -0.000011245805 0.00123137  0.00005928  0.0004820   0.000220160
  8   -230.3810634077  -0.000007876477 0.00141176  0.00005528  0.0002614   0.000157759
  9   -230.3810692183  -0.000005810610 0.00057213  0.00002630  0.0002472   0.000088882
 10   -230.3810712655  -0.000002047183 0.00076930  0.00003417  0.0001939   0.000088807
 11   -230.3810735362  -0.000002270695 0.00057120  0.00002581  0.0001464   0.000059425
 12   -230.3810753325  -0.000001796372 0.00010539  0.00000500  0.0001718   0.000055891
                          ***Energy convergence achieved***
 13   -230.3810756968  -0.000000364243 0.00003886  0.00000205  0.0001688   0.000055007
 14   -230.3810755646   0.000000132138 0.00015240  0.00000660  0.0001676   0.000057070
 15   -230.3810752920   0.000000272631 0.00031036  0.00001403  0.0001704   0.000056649
 16   -230.3810743011   0.000000990892 0.00021103  0.00000961  0.0001549   0.000054628
 17   -230.3810736426   0.000000658501 0.00028007  0.00001405  0.0001482   0.000052781
 18   -230.3810727491   0.000000893463 0.00055608  0.00002778  0.0001430   0.000051522
 19   -230.3810714231   0.000001326044 0.00034085  0.00001818  0.0001216   0.000060509
               *** Restarting incremental Fock matrix formation ***
                             ****Resetting KDIIS****
                          ***Energy convergence achieved***
 20   -230.3810707074   0.000000715733 0.00003282  0.00000139  0.0001110   0.000060547

            ***Energy convergence in two consecutive cycles with***
                    ***'reasonable' density convergence***
                       *** signaling convergence ***

                    *** KDIIS BlockDiag ( 0.001 sec) ***

               *****************************************************
               *                     SUCCESS                       *
               *           SCF CONVERGED AFTER  21 CYCLES          *
               *****************************************************

Setting up the final grid:

General Integration Accuracy     IntAcc      ...  4.670
Radial Grid Type                 RadialGrid  ... Gauss-Chebyshev
Angular Grid (max. acc.)         AngularGrid ... Lebedev-302
Angular grid pruning method      GridPruning ... 3 (G Style)
Weight generation scheme         WeightScheme... Becke
Basis function cutoff            BFCut       ...    1.0000e-10
Integration weight cutoff        WCut        ...    1.0000e-14
Grids for H and He will be reduced by one unit

# of grid points (after initial pruning)     ...  57636 (   0.0 sec)
# of grid points (after weights+screening)   ...  56373 (   0.1 sec)
nearest neighbour list constructed           ...    0.0 sec
Grid point re-assignment to atoms done       ...    0.0 sec
Grid point division into batches done        ...    0.2 sec
Reduced shell lists constructed in    0.6 sec

Total number of grid points                  ...    56373
Total number of batches                      ...      888
Average number of points per batch           ...       63
Average number of grid points per atom       ...     4698
Average number of shells per batch           ...    13.63 (28.40%)
Average number of basis functions per batch  ...    26.01 (27.09%)
Average number of large shells per batch     ...     9.30 (68.25%)
Average number of large basis fcns per batch ...    18.44 (70.90%)
Maximum spatial batch extension              ...  20.56, 20.70, 23.13 au
Average spatial batch extension              ...   3.30,  3.36,  3.77 au

Final grid set up in    0.6 sec
Final integration                            ... done (   0.4 sec)
Change in XC energy                          ...     0.000695479
Integrated number of electrons               ...    41.999986296
Previous integrated no of electrons          ...    42.000918274

----------------
TOTAL SCF ENERGY
----------------

Total Energy       :         -230.38037531 Eh           -6268.96872 eV

Components:
Nuclear Repulsion  :           76.87542679 Eh            2091.88671 eV
Electronic Energy  :         -307.25580210 Eh           -8360.85543 eV
One Electron Energy:         -459.50790379 Eh          -12503.84575 eV
Two Electron Energy:          152.25210170 Eh            4142.99031 eV

Virial components:
Potential Energy   :         -459.83020756 Eh          -12512.61608 eV
Kinetic Energy     :          229.44983226 Eh            6243.64736 eV
Virial Ratio       :            2.00405554


DFT components:
N(Alpha)           :       20.999993147948 electrons
N(Beta)            :       20.999993147948 electrons
N(Total)           :       41.999986295895 electrons
E(XC)              :      -22.783509230240 Eh       

---------------
SCF CONVERGENCE
---------------

  Last Energy change         ...   -7.9259e-08  Tolerance :   1.0000e-06
  Last MAX-Density change    ...    5.1406e-05  Tolerance :   1.0000e-05
  Last RMS-Density change    ...    2.3818e-06  Tolerance :   1.0000e-06
  Last DIIS Error            ...    1.0788e-04  Tolerance :   1.0000e-06

             **** THE GBW FILE WAS UPDATED (Scan_43.gbw) ****
             **** DENSITY FILE WAS UPDATED (Scan_43.scfp.tmp) ****
             **** ENERGY FILE WAS UPDATED (Scan_43.en.tmp) ****
----------------
ORBITAL ENERGIES
----------------

  NO   OCC          E(Eh)            E(eV) 
   0   2.0000     -10.391288      -282.7613 
   1   2.0000     -10.391283      -282.7612 
   2   2.0000     -10.391098      -282.7561 
   3   2.0000     -10.391068      -282.7553 
   4   2.0000     -10.390989      -282.7532 
   5   2.0000     -10.390961      -282.7524 
   6   2.0000      -0.738282       -20.0897 
   7   2.0000      -0.737786       -20.0762 
   8   2.0000      -0.737618       -20.0716 
   9   2.0000      -0.736409       -20.0387 
  10   2.0000      -0.736245       -20.0342 
  11   2.0000      -0.735764       -20.0212 
  12   2.0000      -0.406670       -11.0660 
  13   2.0000      -0.404606       -11.0099 
  14   2.0000      -0.404501       -11.0070 
  15   2.0000      -0.400297       -10.8926 
  16   2.0000      -0.400087       -10.8869 
  17   2.0000      -0.397868       -10.8265 
  18   2.0000      -0.227776        -6.1981 
  19   2.0000      -0.208989        -5.6869 
  20   2.0000      -0.208939        -5.6855 
  21   0.0000      -0.115709        -3.1486 
  22   0.0000      -0.115603        -3.1457 
  23   0.0000      -0.096944        -2.6380 
  24   0.0000      -0.030387        -0.8269 
  25   0.0000      -0.030184        -0.8214 
  26   0.0000      -0.030039        -0.8174 
  27   0.0000      -0.029624        -0.8061 
  28   0.0000      -0.029463        -0.8017 
  29   0.0000      -0.029269        -0.7964 
  30   0.0000       0.199866         5.4386 
  31   0.0000       0.213672         5.8143 
  32   0.0000       0.214314         5.8318 
  33   0.0000       0.244202         6.6451 
  34   0.0000       0.244621         6.6565 
  35   0.0000       0.260784         7.0963 
  36   0.0000       0.639548        17.4030 
  37   0.0000       0.641937        17.4680 
  38   0.0000       0.642087        17.4721 
  39   0.0000       0.648469        17.6457 
  40   0.0000       0.649035        17.6611 
  41   0.0000       0.653886        17.7931 
  42   0.0000       0.655204        17.8290 
  43   0.0000       0.655431        17.8352 
  44   0.0000       0.655671        17.8417 
  45   0.0000       0.658490        17.9184 
  46   0.0000       0.658572        17.9207 
  47   0.0000       0.660090        17.9620 
  48   0.0000       0.661548        18.0016 
  49   0.0000       0.665581        18.1114 
  50   0.0000       0.665838        18.1184 
  51   0.0000       0.667800        18.1718 
  52   0.0000       0.668183        18.1822 
  53   0.0000       0.668491        18.1906 
  54   0.0000       0.749741        20.4015 
  55   0.0000       0.749924        20.4065 
  56   0.0000       0.750238        20.4150 
  57   0.0000       0.750843        20.4315 
  58   0.0000       0.751402        20.4467 
  59   0.0000       0.751647        20.4534 
  60   0.0000       0.979675        26.6583 
  61   0.0000       0.991098        26.9691 
  62   0.0000       0.992105        26.9966 
  63   0.0000       1.019192        27.7336 
  64   0.0000       1.020135        27.7593 
  65   0.0000       1.036427        28.2026 
  66   0.0000       1.754273        47.7362 
  67   0.0000       1.754292        47.7367 
  68   0.0000       1.754413        47.7400 
  69   0.0000       1.754470        47.7416 
  70   0.0000       1.754637        47.7461 
  71   0.0000       1.754735        47.7488 
  72   0.0000       1.767364        48.0924 
  73   0.0000       1.767459        48.0950 
  74   0.0000       1.767822        48.1049 
  75   0.0000       1.767998        48.1097 
  76   0.0000       1.768522        48.1239 
  77   0.0000       1.768593        48.1259 
  78   0.0000       1.779621        48.4260 
  79   0.0000       1.779675        48.4274 
  80   0.0000       1.779878        48.4330 
  81   0.0000       1.780061        48.4379 
  82   0.0000       1.780226        48.4424 
  83   0.0000       1.780306        48.4446 
  84   0.0000       1.783311        48.5264 
  85   0.0000       1.783448        48.5301 
  86   0.0000       1.784219        48.5511 
  87   0.0000       1.784360        48.5549 
  88   0.0000       1.784691        48.5639 
  89   0.0000       1.784714        48.5646 
  90   0.0000       2.205371        60.0112 
  91   0.0000       2.206069        60.0302 
  92   0.0000       2.206273        60.0357 
  93   0.0000       2.207486        60.0688 
  94   0.0000       2.207617        60.0723 
  95   0.0000       2.208156        60.0870 

                    ********************************
                    * MULLIKEN POPULATION ANALYSIS *
                    ********************************

-----------------------
MULLIKEN ATOMIC CHARGES
-----------------------
   0 C :   -0.165419
   1 H :    0.166389
   2 C :   -0.167848
   3 H :    0.167336
   4 C :   -0.167529
   5 H :    0.167135
   6 C :   -0.165733
   7 H :    0.166468
   8 C :   -0.167489
   9 H :    0.167251
  10 C :   -0.167761
  11 H :    0.167201
Sum of atomic charges:   -0.0000000

--------------------------------
MULLIKEN REDUCED ORBITAL CHARGES
--------------------------------
  0 C s       :     3.920974  s :     3.920974
      pz      :     0.005912  p :     2.229929
      px      :     0.991812
      py      :     1.232205
      dz2     :     0.003595  d :     0.014516
      dxz     :     0.000001
      dyz     :     0.000024
      dx2y2   :     0.010106
      dxy     :     0.000790
  1 H s       :     0.833611  s :     0.833611
  2 C s       :     3.921319  s :     3.921319
      pz      :     0.003315  p :     2.232068
      px      :     1.174397
      py      :     1.054356
      dz2     :     0.003542  d :     0.014462
      dxz     :     0.000058
      dyz     :     0.000029
      dx2y2   :     0.002083
      dxy     :     0.008751
  3 H s       :     0.832664  s :     0.832664
  4 C s       :     3.921672  s :     3.921672
      pz      :     0.003140  p :     2.231378
      px      :     1.177216
      py      :     1.051022
      dz2     :     0.003574  d :     0.014479
      dxz     :     0.000022
      dyz     :     0.000007
      dx2y2   :     0.004316
      dxy     :     0.006560
  5 H s       :     0.832865  s :     0.832865
  6 C s       :     3.920997  s :     3.920997
      pz      :     0.004807  p :     2.230221
      px      :     0.993304
      py      :     1.232110
      dz2     :     0.003597  d :     0.014515
      dxz     :     0.000001
      dyz     :     0.000022
      dx2y2   :     0.010090
      dxy     :     0.000805
  7 H s       :     0.833532  s :     0.833532
  8 C s       :     3.921284  s :     3.921284
      pz      :     0.003307  p :     2.231743
      px      :     1.175020
      py      :     1.053415
      dz2     :     0.003534  d :     0.014461
      dxz     :     0.000068
      dyz     :     0.000033
      dx2y2   :     0.002125
      dxy     :     0.008701
  9 H s       :     0.832749  s :     0.832749
 10 C s       :     3.921701  s :     3.921701
      pz      :     0.003648  p :     2.231580
      px      :     1.178441
      py      :     1.049491
      dz2     :     0.003577  d :     0.014479
      dxz     :     0.000020
      dyz     :     0.000006
      dx2y2   :     0.004373
      dxy     :     0.006504
 11 H s       :     0.832799  s :     0.832799


                     *******************************
                     * LOEWDIN POPULATION ANALYSIS *
                     *******************************

----------------------
LOEWDIN ATOMIC CHARGES
----------------------
   0 C :   -0.113213
   1 H :    0.114176
   2 C :   -0.115123
   3 H :    0.114593
   4 C :   -0.114922
   5 H :    0.114557
   6 C :   -0.113508
   7 H :    0.114225
   8 C :   -0.114784
   9 H :    0.114541
  10 C :   -0.115131
  11 H :    0.114588

-------------------------------
LOEWDIN REDUCED ORBITAL CHARGES
-------------------------------
  0 C s       :     3.754841  s :     3.754841
      pz      :     0.005978  p :     2.338717
      px      :     0.993122
      py      :     1.339617
      dz2     :     0.004899  d :     0.019655
      dxz     :     0.000001
      dyz     :     0.000032
      dx2y2   :     0.013841
      dxy     :     0.000881
  1 H s       :     0.885824  s :     0.885824
  2 C s       :     3.754848  s :     3.754848
      pz      :     0.003542  p :     2.340689
      px      :     1.246934
      py      :     1.090212
      dz2     :     0.004831  d :     0.019587
      dxz     :     0.000080
      dyz     :     0.000038
      dx2y2   :     0.002678
      dxy     :     0.011960
  3 H s       :     0.885407  s :     0.885407
  4 C s       :     3.755011  s :     3.755011
      pz      :     0.003206  p :     2.340297
      px      :     1.267771
      py      :     1.069319
      dz2     :     0.004878  d :     0.019614
      dxz     :     0.000031
      dyz     :     0.000009
      dx2y2   :     0.005783
      dxy     :     0.008913
  5 H s       :     0.885443  s :     0.885443
  6 C s       :     3.754855  s :     3.754855
      pz      :     0.004866  p :     2.339000
      px      :     0.994666
      py      :     1.339468
      dz2     :     0.004901  d :     0.019653
      dxz     :     0.000001
      dyz     :     0.000029
      dx2y2   :     0.013819
      dxy     :     0.000903
  7 H s       :     0.885775  s :     0.885775
  8 C s       :     3.754826  s :     3.754826
      pz      :     0.003572  p :     2.340372
      px      :     1.247740
      py      :     1.089060
      dz2     :     0.004821  d :     0.019587
      dxz     :     0.000094
      dyz     :     0.000044
      dx2y2   :     0.002736
      dxy     :     0.011892
  9 H s       :     0.885459  s :     0.885459
 10 C s       :     3.755026  s :     3.755026
      pz      :     0.003706  p :     2.340491
      px      :     1.269141
      py      :     1.067644
      dz2     :     0.004881  d :     0.019614
      dxz     :     0.000027
      dyz     :     0.000008
      dx2y2   :     0.005862
      dxy     :     0.008836
 11 H s       :     0.885412  s :     0.885412


                      *****************************
                      * MAYER POPULATION ANALYSIS *
                      *****************************

  NA   - Mulliken gross atomic population
  ZA   - Total nuclear charge
  QA   - Mulliken gross atomic charge
  VA   - Mayer's total valence
  BVA  - Mayer's bonded valence
  FA   - Mayer's free valence

  ATOM       NA         ZA         QA         VA         BVA        FA
  0 C      6.1654     6.0000    -0.1654     1.9064     1.9064    -0.0000
  1 H      0.8336     1.0000     0.1664     0.9082     0.9082    -0.0000
  2 C      6.1678     6.0000    -0.1678     1.9061     1.9061    -0.0000
  3 H      0.8327     1.0000     0.1673     0.9080     0.9080     0.0000
  4 C      6.1675     6.0000    -0.1675     1.9060     1.9060    -0.0000
  5 H      0.8329     1.0000     0.1671     0.9079     0.9079    -0.0000
  6 C      6.1657     6.0000    -0.1657     1.9064     1.9064     0.0000
  7 H      0.8335     1.0000     0.1665     0.9082     0.9082     0.0000
  8 C      6.1675     6.0000    -0.1675     1.9061     1.9061     0.0000
  9 H      0.8327     1.0000     0.1673     0.9081     0.9081    -0.0000
 10 C      6.1678     6.0000    -0.1678     1.9060     1.9060     0.0000
 11 H      0.8328     1.0000     0.1672     0.9078     0.9078    -0.0000

  Mayer bond orders larger than 0.1
B(  0-C ,  1-H ) :   0.9039 B(  0-C ,  2-C ) :   0.4360 B(  0-C ,  6-C ) :   0.1091 
B(  0-C , 10-C ) :   0.4531 B(  2-C ,  3-H ) :   0.9036 B(  2-C ,  4-C ) :   0.4499 
B(  2-C ,  8-C ) :   0.1123 B(  4-C ,  5-H ) :   0.9035 B(  4-C ,  6-C ) :   0.4371 
B(  4-C , 10-C ) :   0.1113 B(  6-C ,  7-H ) :   0.9039 B(  6-C ,  8-C ) :   0.4519 
B(  8-C ,  9-H ) :   0.9036 B(  8-C , 10-C ) :   0.4339 B( 10-C , 11-H ) :   0.9034 


-------
TIMINGS
-------

Total SCF time: 0 days 0 hours 0 min 17 sec 

Total time                  ....      17.312 sec
Sum of individual times     ....      17.044 sec  ( 98.5%)

Fock matrix formation       ....      15.965 sec  ( 92.2%)
  XC integration            ....       3.228 sec  ( 20.2% of F)
    Basis function eval.    ....       1.227 sec  ( 38.0% of XC)
    Density eval.           ....       0.173 sec  (  5.4% of XC)
    XC-Functional eval.     ....       1.105 sec  ( 34.2% of XC)
    XC-Potential eval.      ....       0.119 sec  (  3.7% of XC)
Diagonalization             ....       0.021 sec  (  0.1%)
Density matrix formation    ....       0.002 sec  (  0.0%)
Population analysis         ....       0.013 sec  (  0.1%)
Initial guess               ....       0.205 sec  (  1.2%)
Orbital Transformation      ....       0.000 sec  (  0.0%)
Orbital Orthonormalization  ....       0.000 sec  (  0.0%)
DIIS solution               ....       0.000 sec  (  0.0%)
Grid generation             ....       0.837 sec  (  4.8%)


-------------------------------------------------------------------------------
                          DFT DISPERSION CORRECTION                            
                                                                               
                              DFTD3 V3.1  Rev 1                                
                              USING zero damping                               
-------------------------------------------------------------------------------
The omegaB97X-D3 functional is recognized. Fit by Chai et al.
Active option DFTDOPT                   ...         3   

molecular C6(AA) [au] = 2491.649432 


            DFT-D V3
 parameters
 s6 scaling factor         :     1.0000 
 rs6 scaling factor        :     1.2810 
 s8 scaling factor         :     1.0000 
 rs8 scaling factor        :     1.0940 
 Damping factor alpha6     :    14.0000 
 Damping factor alpha8     :    16.0000 
 ad hoc parameters k1-k3   :    16.0000     1.3333    -4.0000 

 Edisp/kcal,au: -0.765841527026  -0.001220446028 
 E6   /kcal   :  -0.542436343 
 E8   /kcal   :  -0.223405184 
 % E8         :  29.171202654 

-------------------------   ----------------
Dispersion correction           -0.001220446
-------------------------   ----------------


-------------------------   --------------------
FINAL SINGLE POINT ENERGY      -230.381595753903
-------------------------   --------------------


                            ***************************************
                            *     ORCA property calculations      *
                            ***************************************

                                    ---------------------
                                    Active property flags
                                    ---------------------
   (+) Dipole Moment


------------------------------------------------------------------------------
                       ORCA ELECTRIC PROPERTIES CALCULATION
------------------------------------------------------------------------------

Dipole Moment Calculation                       ... on
Quadrupole Moment Calculation                   ... off
Polarizability Calculation                      ... off
GBWName                                         ... Scan_43.gbw
Electron density file                           ... Scan_43.scfp.tmp

-------------
DIPOLE MOMENT
-------------
                                X             Y             Z
Electronic contribution:      0.00018      -0.00072       0.00176
Nuclear contribution   :     -0.00009      -0.00011      -0.00096
                        -----------------------------------------
Total Dipole Moment    :      0.00009      -0.00083       0.00080
                        -----------------------------------------
Magnitude (a.u.)       :      0.00115
Magnitude (Debye)      :      0.00293


Timings for individual modules:

Sum of individual times         ...       17.645 sec (=   0.294 min)
GTO integral calculation        ...        0.310 sec (=   0.005 min)   1.8 %
SCF iterations                  ...       17.335 sec (=   0.289 min)  98.2 %
                             ****ORCA TERMINATED NORMALLY****
TOTAL RUN TIME: 0 days 0 hours 0 minutes 17 seconds 980 msec
