
                                 *****************
                                 * O   R   C   A *
                                 *****************

           --- An Ab Initio, DFT and Semiempirical electronic structure package ---

                  #######################################################
                  #                        -***-                        #
                  #  Department of molecular theory and spectroscopy    #
                  #              Directorship: Frank Neese              #
                  # Max Planck Institute for Chemical Energy Conversion #
                  #                  D-45470 Muelheim/Ruhr              #
                  #                       Germany                       #
                  #                                                     #
                  #                  All rights reserved                #
                  #                        -***-                        #
                  #######################################################


                         Program Version 4.0.0.2 - RELEASE -


 With contributions from (in alphabetic order):
   Daniel Aravena         : Magnetic Properties
   Michael Atanasov       : Ab Initio Ligand Field Theory
   Ute Becker             : Parallelization
   Martin Brehm           : Molecular dynamics
   Dmytro Bykov           : SCF Hessian
   Vijay G. Chilkuri      : MRCI spin determinant printing
   Dipayan Datta          : RHF DLPNO-CCSD density
   Achintya Kumar Dutta   : EOM-CC, STEOM-CC
   Dmitry Ganyushin       : Spin-Orbit,Spin-Spin,Magnetic field MRCI
   Yang Guo               : DLPNO-NEVPT2, CIM, IAO-localization
   Andreas Hansen         : Spin unrestricted coupled pair/coupled cluster methods
   Lee Huntington         : MR-EOM, pCC
   Robert Izsak           : Overlap fitted RIJCOSX, COSX-SCS-MP3, EOM
   Christian Kollmar      : KDIIS, OOCD, Brueckner-CCSD(T), CCSD density
   Simone Kossmann        : Meta GGA functionals, TD-DFT gradient, OOMP2, MP2 Hessian
   Martin Krupicka        : AUTO-CI
   Dagmar Lenk            : GEPOL surface
   Dimitrios Liakos       : Extrapolation schemes; parallel MDCI
   Dimitrios Manganas     : ROCIS; embedding schemes
   Dimitrios Pantazis     : SARC Basis sets
   Taras Petrenko         : DFT Hessian,TD-DFT gradient, ASA, ECA, R-Raman, ABS, FL, XAS/XES, NRVS
   Peter Pinski           : DLPNO-MP2
   Christoph Reimann      : Effective Core Potentials
   Marius Retegan         : Local ZFS, SOC
   Christoph Riplinger    : Optimizer, TS searches, QM/MM, DLPNO-CCSD(T), (RO)-DLPNO pert. Triples
   Tobias Risthaus        : Range-separated hybrids, TD-DFT gradient, RPA, STAB
   Michael Roemelt        : Restricted open shell CIS
   Masaaki Saitow         : Open-shell DLPNO
   Barbara Sandhoefer     : DKH picture change effects
   Kantharuban Sivalingam : CASSCF convergence, NEVPT2, FIC-MRCI
   Georgi Stoychev        : AutoAux
   Boris Wezisla          : Elementary symmetry handling
   Frank Wennmohs         : Technical directorship


 We gratefully acknowledge several colleagues who have allowed us to
 interface, adapt or use parts of their codes:
   Stefan Grimme, W. Hujo, H. Kruse,             : VdW corrections, initial TS optimization,
                  C. Bannwarth                     DFT functionals, gCP, sTDA/sTD-DF
   Ed Valeev                                     : LibInt (2-el integral package), F12 methods
   Garnet Chan, S. Sharma, J. Yang, R. Olivares  : DMRG
   Ulf Ekstrom                                   : XCFun DFT Library
   Mihaly Kallay                                 : mrcc  (arbitrary order and MRCC methods)
   Jiri Pittner, Ondrej Demel                    : Mk-CCSD
   Frank Weinhold                                : gennbo (NPA and NBO analysis)
   Christopher J. Cramer and Donald G. Truhlar   : smd solvation model


 Your calculation uses the libint2 library for the computation of 2-el integrals
 For citations please refer to: http://libint.valeyev.net

 This ORCA versions uses:
   CBLAS   interface :  Fast vector & matrix operations
   LAPACKE interface :  Fast linear algebra routines
   SCALAPACK package :  Parallel linear algebra routines


Your calculation utilizes the atom-pairwise dispersion correction
with the zero-damping scheme (D30)
Cite in your paper:
S.Grimme, J.Antony, S.Ehrlich and H.Krieg, J.Chem.Phys., 132, (2010), 154104 
   

XCFun DFT library Copyright 2009-2010 Ulf Ekstrom and contributors.
See http://admol.org/xcfun for more information. This is free soft-
ware; see the source code for copying conditions. There is ABSOLUTELY
NO WARRANTY; not even for MERCHANTABILITY or FITNESS FOR A PARTICULAR
PURPOSE. For details see the documentation. Scientific users of this 
library should cite U. Ekstrom, L. Visscher, R. Bast, A. J. Thorvald-
sen and K. Ruud; J.Chem.Theor.Comp. 2010, DOI: 10.1021/ct100117s
XCFun Version 0.99 
Your calculation utilizes the basis: 6-31G(d)
   H-He, Li-Ne : W. J. Hehre, R. Ditchfield and J.A. Pople, J. Chem. Phys. 56, 2257 (1972).
                 Note: He and Ne are unpublished basis sets taken from the Gaussian program.
                 Note: Li and B from J. D. Dill and J. A. Pople, J. Chem. Phys. 62, 2921 (1975).
   Na - Ar     : M. M. Francl, W. J. Pietro, W. J. Hehre, J. S. Binkley, M. S. Gordon, 
                 D. J. DeFrees and J. A. Pople, J. Chem. Phys. 77, 3654 (1982).
   K - Zn      : V. A. Rassolov, J. A. Pople, M. A. Ratner, and T. L. Windus, J. Chem. Phys. 109, 1223 (1998).

================================================================================
                                        WARNINGS
                       Please study these warnings very carefully!
================================================================================

Warning: TCutStore was < 0. Adjusted to Thresh (uncritical)

INFO   : the flag for use of LIBINT has been found!

================================================================================
                                       INPUT FILE
================================================================================
NAME = initial45.inp
|  1> ! WB97X-D3 6-31G(d) VerySlowConv
|  2> ! KDIIS NOSOSCF
|  3> %base "Scan_45"
|  4> 
|  5> %scf
|  6> maxiter 999
|  7> end
|  8> 
|  9> * xyz 0 1
| 10> C          5.161745782144   -2.563857004239    0.148609679617
| 11> H          5.074988866418   -3.672766818618    0.122517452795
| 12> C          2.485648897362    1.654751920549   -0.044844521633
| 13> H          3.414244213368    1.044001656658    0.005768758621
| 14> C         -2.509607382040    1.453735015766   -0.095620386336
| 15> H         -1.508679253433    1.938688614841   -0.124316771803
| 16> C         -4.913742969962   -2.923042552436    0.148303760898
| 17> H         -4.824104567783   -1.814326952540    0.123471875959
| 18> C         -2.219999718211   -7.131065100996   -0.030243580435
| 19> H         -3.150156290389   -6.523051766172    0.024353105910
| 20> C          2.775311595268   -6.948520250647   -0.125665217625
| 21> H          1.772960827264   -7.430656762156   -0.152334155917
| 22> **                         ****END OF INPUT****
================================================================================

                       ****************************
                       * Single Point Calculation *
                       ****************************

---------------------------------
CARTESIAN COORDINATES (ANGSTROEM)
---------------------------------
  C      5.161746   -2.563857    0.148610
  H      5.074989   -3.672767    0.122517
  C      2.485649    1.654752   -0.044845
  H      3.414244    1.044002    0.005769
  C     -2.509607    1.453735   -0.095620
  H     -1.508679    1.938689   -0.124317
  C     -4.913743   -2.923043    0.148304
  H     -4.824105   -1.814327    0.123472
  C     -2.220000   -7.131065   -0.030244
  H     -3.150156   -6.523052    0.024353
  C      2.775312   -6.948520   -0.125665
  H      1.772961   -7.430657   -0.152334

----------------------------
CARTESIAN COORDINATES (A.U.)
----------------------------
  NO LB      ZA    FRAG     MASS         X           Y           Z
   0 C     6.0000    0    12.011    9.754286   -4.844988    0.280832
   1 H     1.0000    0     1.008    9.590339   -6.940523    0.231524
   2 C     6.0000    0    12.011    4.697196    3.127028   -0.084744
   3 H     1.0000    0     1.008    6.451987    1.972877    0.010901
   4 C     6.0000    0    12.011   -4.742471    2.747161   -0.180696
   5 H     1.0000    0     1.008   -2.850991    3.663591   -0.234925
   6 C     6.0000    0    12.011   -9.285629   -5.523750    0.280253
   7 H     1.0000    0     1.008   -9.116236   -3.428581    0.233328
   8 C     6.0000    0    12.011   -4.195191  -13.475760   -0.057152
   9 H     1.0000    0     1.008   -5.952933  -12.326781    0.046021
  10 C     6.0000    0    12.011    5.244579  -13.130800   -0.237473
  11 H     1.0000    0     1.008    3.350410  -14.041906   -0.287870

--------------------------------
INTERNAL COORDINATES (ANGSTROEM)
--------------------------------
 C      0   0   0     0.000000000000     0.00000000     0.00000000
 H      1   0   0     1.112604396519     0.00000000     0.00000000
 C      1   2   0     4.999558012967   142.97271148     0.00000000
 H      3   1   2     1.112594647609    24.25854019   183.75583459
 C      3   1   2     4.999557108520   120.08423983     5.79371483
 H      5   3   1     1.112591836403    23.63387733   182.79699673
 C      5   3   1     4.999554859808   121.00810074     1.38809282
 H      7   5   3     1.112610420186    24.18890262   174.52973889
 C      7   5   3     4.999558543376   118.42451296   353.79024036
 H      9   7   5     1.112588091905    24.19339046   181.98450677
 C      2   1   3     4.010071163557   149.35455556   359.22265993
 H     11   2   1     1.112597820471   150.70633056   353.11991136

---------------------------
INTERNAL COORDINATES (A.U.)
---------------------------
 C      0   0   0     0.000000000000     0.00000000     0.00000000
 H      1   0   0     2.102517604817     0.00000000     0.00000000
 C      1   2   0     9.447795435159   142.97271148     0.00000000
 H      3   1   2     2.102499182049    24.25854019   183.75583459
 C      3   1   2     9.447793726001   120.08423983     5.79371483
 H      5   3   1     2.102493869639    23.63387733   182.79699673
 C      5   3   1     9.447789476553   121.00810074     1.38809282
 H      7   5   3     2.102528987900    24.18890262   174.52973889
 C      7   5   3     9.447796437486   118.42451296   353.79024036
 H      9   7   5     2.102486793563    24.19339046   181.98450677
 C      2   1   3     7.577936276657   149.35455556   359.22265993
 H     11   2   1     2.102505177889   150.70633056   353.11991136

---------------------
BASIS SET INFORMATION
---------------------
There are 2 groups of distinct atoms

 Group   1 Type C   : 10s4p1d contracted to 3s2p1d pattern {631/31/1}
 Group   2 Type H   : 4s contracted to 2s pattern {31}

Atom   0C    basis set group =>   1
Atom   1H    basis set group =>   2
Atom   2C    basis set group =>   1
Atom   3H    basis set group =>   2
Atom   4C    basis set group =>   1
Atom   5H    basis set group =>   2
Atom   6C    basis set group =>   1
Atom   7H    basis set group =>   2
Atom   8C    basis set group =>   1
Atom   9H    basis set group =>   2
Atom  10C    basis set group =>   1
Atom  11H    basis set group =>   2
------------------------------------------------------------------------------
                           ORCA GTO INTEGRAL CALCULATION
------------------------------------------------------------------------------

                         BASIS SET STATISTICS AND STARTUP INFO

 # of primitive gaussian shells          ...  114
 # of primitive gaussian functions       ...  186
 # of contracted shells                  ...   48
 # of contracted basis functions         ...   96
 Highest angular momentum                ...    2
 Maximum contraction depth               ...    6
 Integral package used                   ... LIBINT
 Integral threshhold            Thresh   ...  1.000e-10
 Primitive cut-off              TCut     ...  1.000e-11


------------------------------ INTEGRAL EVALUATION ----------------------------


 * One electron integrals 
 Pre-screening matrix                    ... done
 Shell pair data                         ... done (   0.000 sec)

-------------------------------------------------------------------------------
                                 ORCA SCF
-------------------------------------------------------------------------------

------------
SCF SETTINGS
------------
Hamiltonian:
 Density Functional     Method          .... DFT(GTOs)
 Exchange Functional    Exchange        .... WB97X-D3
 Correlation Functional Correlation     .... WB97X-D3
 Gradients option       PostSCFGGA      .... off
 Hybrid DFT is turned on
   Fraction HF Exchange ScalHFX         ....  0.195728
   Scaling of DF-GGA-X  ScalDFX         ....  0.000000
   Scaling of DF-GGA-C  ScalDFC         ....  1.000000
   Scaling of DF-LDA-C  ScalLDAC        ....  1.000000
   Perturbative correction              ....  0.000000
 Long-range corrected/Screened/Range-Separated Hybrid DFT is turned on
   Amount of maximum screened exact exchange              ....  0.804272
   Range separation parameter mu (erf(mu*r12)/r12)        ....  0.250000


General Settings:
 Integral files         IntName         .... Scan_45
 Hartree-Fock type      HFTyp           .... RHF
 Total Charge           Charge          ....    0
 Multiplicity           Mult            ....    1
 Number of Electrons    NEL             ....   42
 Basis Dimension        Dim             ....   96
 Nuclear Repulsion      ENuc            ....     74.3951512233 Eh

Convergence Acceleration:
 DIIS                   CNVDIIS         .... on
   Start iteration      DIISMaxIt       ....     0
   Startup error        DIISStart       ....  0.200000
   # of expansion vecs  DIISMaxEq       ....     5
   Bias factor          DIISBfac        ....   1.050
   Max. coefficient     DIISMaxC        ....  10.000
 Newton-Raphson         CNVNR           .... off
 SOSCF                  CNVSOSCF        .... off
 Level Shifting         CNVShift        .... off
 Zerner damping         CNVZerner       .... off
 Static damping         CNVDamp         .... off
 Fernandez-Rico         CNVRico         .... off

SCF Procedure:
 Maximum # iterations   MaxIter         ....   999
 SCF integral mode      SCFMode         .... Direct
   Integral package                     .... LIBINT
 Reset frequeny         DirectResetFreq ....    20
 Integral Threshold     Thresh          ....  1.000e-10 Eh
 Primitive CutOff       TCut            ....  1.000e-11 Eh

Convergence Tolerance:
 Convergence Check Mode ConvCheckMode   .... All-Criteria
 Convergence forced     ConvForced      .... 0
 Energy Change          TolE            ....  1.000e-06 Eh
 Max Density Change     TolMaxP         ....  1.000e-05
 RMS Density Change     TolRMSP         ....  1.000e-06
 DIIS Error             TolErr          ....  1.000e-06


Diagonalization of the overlap matrix:
Smallest eigenvalue                        ... 4.519e-02
Time for diagonalization                   ...    0.002 sec
Threshold for overlap eigenvalues          ... 1.000e-08
Number of eigenvalues below threshold      ... 0
Time for construction of square roots      ...    0.007 sec
Total time needed                          ...    0.009 sec

-------------------
DFT GRID GENERATION
-------------------

General Integration Accuracy     IntAcc      ...  4.340
Radial Grid Type                 RadialGrid  ... Gauss-Chebyshev
Angular Grid (max. acc.)         AngularGrid ... Lebedev-110
Angular grid pruning method      GridPruning ... 3 (G Style)
Weight generation scheme         WeightScheme... Becke
Basis function cutoff            BFCut       ...    1.0000e-10
Integration weight cutoff        WCut        ...    1.0000e-14
Grids for H and He will be reduced by one unit

# of grid points (after initial pruning)     ...  14700 (   0.0 sec)
# of grid points (after weights+screening)   ...  14447 (   0.0 sec)
nearest neighbour list constructed           ...    0.0 sec
Grid point re-assignment to atoms done       ...    0.0 sec
Grid point division into batches done        ...    0.0 sec
Reduced shell lists constructed in    0.1 sec

Total number of grid points                  ...    14447
Total number of batches                      ...      228
Average number of points per batch           ...       63
Average number of grid points per atom       ...     1204
Average number of shells per batch           ...    15.24 (31.75%)
Average number of basis functions per batch  ...    29.04 (30.25%)
Average number of large shells per batch     ...    10.39 (68.19%)
Average number of large basis fcns per batch ...    20.64 (71.07%)
Maximum spatial batch extension              ...  19.52, 24.74, 31.36 au
Average spatial batch extension              ...   5.01,  5.50,  6.84 au

Time for grid setup =    0.195 sec

------------------------------
INITIAL GUESS: MODEL POTENTIAL
------------------------------
Loading Hartree-Fock densities                     ... done
Calculating cut-offs                               ... done
Setting up the integral package                    ... done
Initializing the effective Hamiltonian             ... done
Starting the Coulomb interaction                   ... done (   0.0 sec)
Reading the grid                                   ... done
Mapping shells                                     ... done
Starting the XC term evaluation                    ... done (   0.1 sec)
  promolecular density results
     # of electrons  =     41.994227801
     EX              =    -31.541160147
     EC              =     -1.138534033
     EX+EC           =    -32.679694180
Transforming the Hamiltonian                       ... done (   0.0 sec)
Diagonalizing the Hamiltonian                      ... done (   0.0 sec)
Back transforming the eigenvectors                 ... done (   0.0 sec)
Now organizing SCF variables                       ... done
                      ------------------
                      INITIAL GUESS DONE (   0.4 sec)
                      ------------------
--------------
SCF ITERATIONS
--------------
ITER       Energy         Delta-E        Max-DP      RMS-DP      [F,P]   Gradient Norm
               ***  Starting incremental Fock matrix formation  ***
                             ****Resetting KDIIS****
                             ****Turning on KDIIS(Cayley)****
  0   -230.2558550173   0.000000000000 0.02875004  0.00092230  0.0800157   0.050738176
  1   -230.2870431979  -0.031188180614 0.04436770  0.00169385  0.0693552   0.041920837
  2   -230.3341375233  -0.047094325384 0.05291343  0.00207868  0.0451923   0.028034981
  3   -230.3612672882  -0.027129764925 0.06318795  0.00237935  0.0246624   0.015406017
  4   -230.3696749428  -0.008407654584 0.01480737  0.00052337  0.0074425   0.003773485
  5   -230.3705398700  -0.000864927208 0.00878589  0.00033708  0.0056311   0.001949899
  6   -230.3709356348  -0.000395764781 0.00564802  0.00020773  0.0019684   0.000841291
  7   -230.3710024506  -0.000066815769 0.00166481  0.00005656  0.0007079   0.000521559
  8   -230.3710128146  -0.000010364078 0.00060148  0.00002638  0.0001839   0.000108968
  9   -230.3710143051  -0.000001490475 0.00028459  0.00001247  0.0001985   0.000091955
                          ***Energy convergence achieved***
 10   -230.3710150538  -0.000000748682 0.00040273  0.00002070  0.0001452   0.000053912
 11   -230.3710164416  -0.000001387806 0.00017048  0.00000853  0.0001471   0.000050714
                          ***Energy convergence achieved***
 12   -230.3710158596   0.000000582017 0.00028563  0.00001449  0.0001425   0.000051037
 13   -230.3710149375   0.000000922097 0.00039597  0.00002084  0.0001275   0.000053779
 14   -230.3710137517   0.000001185820 0.00086233  0.00004423  0.0001212   0.000058019
 15   -230.3710117419   0.000002009748 0.00064070  0.00003320  0.0000823   0.000046273
                          ***Energy convergence achieved***
 16   -230.3710107866   0.000000955319 0.00055916  0.00002861  0.0000936   0.000037979
 17   -230.3710103411   0.000000445472 0.00038064  0.00001860  0.0000760   0.000027762
 18   -230.3710103609  -0.000000019737 0.00042840  0.00001915  0.0000531   0.000024870
 19   -230.3710105576  -0.000000196707 0.00022815  0.00001088  0.0000418   0.000026972
               *** Restarting incremental Fock matrix formation ***
                             ****Resetting KDIIS****
                           ***RMSP convergence achieved***

            ***Energy convergence in two consecutive cycles with***
                    ***'reasonable' density convergence***
                       *** signaling convergence ***

                    *** KDIIS BlockDiag ( 0.001 sec) ***

               *****************************************************
               *                     SUCCESS                       *
               *           SCF CONVERGED AFTER  20 CYCLES          *
               *****************************************************

Setting up the final grid:

General Integration Accuracy     IntAcc      ...  4.670
Radial Grid Type                 RadialGrid  ... Gauss-Chebyshev
Angular Grid (max. acc.)         AngularGrid ... Lebedev-302
Angular grid pruning method      GridPruning ... 3 (G Style)
Weight generation scheme         WeightScheme... Becke
Basis function cutoff            BFCut       ...    1.0000e-10
Integration weight cutoff        WCut        ...    1.0000e-14
Grids for H and He will be reduced by one unit

# of grid points (after initial pruning)     ...  57636 (   0.0 sec)
# of grid points (after weights+screening)   ...  56462 (   0.1 sec)
nearest neighbour list constructed           ...    0.0 sec
Grid point re-assignment to atoms done       ...    0.0 sec
Grid point division into batches done        ...    0.2 sec
Reduced shell lists constructed in    0.6 sec

Total number of grid points                  ...    56462
Total number of batches                      ...      888
Average number of points per batch           ...       63
Average number of grid points per atom       ...     4705
Average number of shells per batch           ...    13.10 (27.30%)
Average number of basis functions per batch  ...    24.94 (25.98%)
Average number of large shells per batch     ...     8.91 (67.99%)
Average number of large basis fcns per batch ...    17.64 (70.72%)
Maximum spatial batch extension              ...  20.00, 20.14, 24.18 au
Average spatial batch extension              ...   3.33,  3.34,  3.78 au

Final grid set up in    0.7 sec
Final integration                            ... done (   0.4 sec)
Change in XC energy                          ...     0.000627899
Integrated number of electrons               ...    41.999993601
Previous integrated no of electrons          ...    42.001369936

----------------
TOTAL SCF ENERGY
----------------

Total Energy       :         -230.37038282 Eh           -6268.69681 eV

Components:
Nuclear Repulsion  :           74.39515122 Eh            2024.39498 eV
Electronic Energy  :         -304.76553404 Eh           -8293.09179 eV
One Electron Energy:         -454.54632158 Eh          -12368.83423 eV
Two Electron Energy:          149.78078754 Eh            4075.74244 eV

Virial components:
Potential Energy   :         -459.83863973 Eh          -12512.84553 eV
Kinetic Energy     :          229.46825691 Eh            6244.14872 eV
Virial Ratio       :            2.00393138


DFT components:
N(Alpha)           :       20.999996800318 electrons
N(Beta)            :       20.999996800318 electrons
N(Total)           :       41.999993600636 electrons
E(XC)              :      -22.785795275343 Eh       

---------------
SCF CONVERGENCE
---------------

  Last Energy change         ...   -1.5830e-07  Tolerance :   1.0000e-06
  Last MAX-Density change    ...    1.4389e-05  Tolerance :   1.0000e-05
  Last RMS-Density change    ...    6.2404e-07  Tolerance :   1.0000e-06
  Last DIIS Error            ...    4.7123e-05  Tolerance :   1.0000e-06

             **** THE GBW FILE WAS UPDATED (Scan_45.gbw) ****
             **** DENSITY FILE WAS UPDATED (Scan_45.scfp.tmp) ****
             **** ENERGY FILE WAS UPDATED (Scan_45.en.tmp) ****
----------------
ORBITAL ENERGIES
----------------

  NO   OCC          E(Eh)            E(eV) 
   0   2.0000     -10.390865      -282.7498 
   1   2.0000     -10.390788      -282.7477 
   2   2.0000     -10.390739      -282.7464 
   3   2.0000     -10.390716      -282.7457 
   4   2.0000     -10.390652      -282.7440 
   5   2.0000     -10.390562      -282.7416 
   6   2.0000      -0.738126       -20.0854 
   7   2.0000      -0.737759       -20.0754 
   8   2.0000      -0.737604       -20.0712 
   9   2.0000      -0.736675       -20.0459 
  10   2.0000      -0.736535       -20.0421 
  11   2.0000      -0.736175       -20.0323 
  12   2.0000      -0.405159       -11.0249 
  13   2.0000      -0.403751       -10.9866 
  14   2.0000      -0.403625       -10.9832 
  15   2.0000      -0.400786       -10.9059 
  16   2.0000      -0.400587       -10.9005 
  17   2.0000      -0.399090       -10.8598 
  18   2.0000      -0.224585        -6.1113 
  19   2.0000      -0.206771        -5.6265 
  20   2.0000      -0.206734        -5.6255 
  21   0.0000      -0.117730        -3.2036 
  22   0.0000      -0.117631        -3.2009 
  23   0.0000      -0.099897        -2.7183 
  24   0.0000      -0.030069        -0.8182 
  25   0.0000      -0.029964        -0.8154 
  26   0.0000      -0.029824        -0.8115 
  27   0.0000      -0.029601        -0.8055 
  28   0.0000      -0.029470        -0.8019 
  29   0.0000      -0.029362        -0.7990 
  30   0.0000       0.205201         5.5838 
  31   0.0000       0.216487         5.8909 
  32   0.0000       0.216906         5.9023 
  33   0.0000       0.240446         6.5429 
  34   0.0000       0.241079         6.5601 
  35   0.0000       0.253337         6.8937 
  36   0.0000       0.642881        17.4937 
  37   0.0000       0.644810        17.5462 
  38   0.0000       0.645049        17.5527 
  39   0.0000       0.650304        17.6957 
  40   0.0000       0.650920        17.7124 
  41   0.0000       0.655261        17.8306 
  42   0.0000       0.656066        17.8525 
  43   0.0000       0.656142        17.8545 
  44   0.0000       0.656212        17.8564 
  45   0.0000       0.658002        17.9052 
  46   0.0000       0.658049        17.9064 
  47   0.0000       0.658950        17.9310 
  48   0.0000       0.660367        17.9695 
  49   0.0000       0.663256        18.0481 
  50   0.0000       0.663312        18.0496 
  51   0.0000       0.664279        18.0759 
  52   0.0000       0.664439        18.0803 
  53   0.0000       0.664570        18.0839 
  54   0.0000       0.750278        20.4161 
  55   0.0000       0.750324        20.4174 
  56   0.0000       0.750637        20.4259 
  57   0.0000       0.750758        20.4292 
  58   0.0000       0.751203        20.4413 
  59   0.0000       0.751242        20.4423 
  60   0.0000       0.972299        26.4576 
  61   0.0000       0.982104        26.7244 
  62   0.0000       0.982939        26.7471 
  63   0.0000       1.005458        27.3599 
  64   0.0000       1.006316        27.3832 
  65   0.0000       1.019339        27.7376 
  66   0.0000       1.754434        47.7406 
  67   0.0000       1.754516        47.7428 
  68   0.0000       1.754573        47.7444 
  69   0.0000       1.754672        47.7471 
  70   0.0000       1.754759        47.7494 
  71   0.0000       1.754846        47.7518 
  72   0.0000       1.767473        48.0954 
  73   0.0000       1.767542        48.0973 
  74   0.0000       1.767973        48.1090 
  75   0.0000       1.768116        48.1129 
  76   0.0000       1.768571        48.1253 
  77   0.0000       1.768644        48.1272 
  78   0.0000       1.779757        48.4296 
  79   0.0000       1.779806        48.4310 
  80   0.0000       1.780078        48.4384 
  81   0.0000       1.780188        48.4414 
  82   0.0000       1.780400        48.4471 
  83   0.0000       1.780474        48.4492 
  84   0.0000       1.783478        48.5309 
  85   0.0000       1.783563        48.5332 
  86   0.0000       1.784459        48.5576 
  87   0.0000       1.784547        48.5600 
  88   0.0000       1.784818        48.5674 
  89   0.0000       1.784841        48.5680 
  90   0.0000       2.205225        60.0072 
  91   0.0000       2.205739        60.0212 
  92   0.0000       2.205984        60.0279 
  93   0.0000       2.206878        60.0522 
  94   0.0000       2.207090        60.0580 
  95   0.0000       2.207486        60.0687 

                    ********************************
                    * MULLIKEN POPULATION ANALYSIS *
                    ********************************

-----------------------
MULLIKEN ATOMIC CHARGES
-----------------------
   0 C :   -0.162510
   1 H :    0.163521
   2 C :   -0.165126
   3 H :    0.164371
   4 C :   -0.165038
   5 H :    0.164827
   6 C :   -0.162697
   7 H :    0.163591
   8 C :   -0.164946
   9 H :    0.164336
  10 C :   -0.165185
  11 H :    0.164853
Sum of atomic charges:   -0.0000000

--------------------------------
MULLIKEN REDUCED ORBITAL CHARGES
--------------------------------
  0 C s       :     3.921873  s :     3.921873
      pz      :     0.006274  p :     2.226084
      px      :     0.992232
      py      :     1.227578
      dz2     :     0.003605  d :     0.014553
      dxz     :     0.000001
      dyz     :     0.000026
      dx2y2   :     0.010123
      dxy     :     0.000798
  1 H s       :     0.836479  s :     0.836479
  2 C s       :     3.922060  s :     3.922060
      pz      :     0.003841  p :     2.228561
      px      :     1.168771
      py      :     1.055949
      dz2     :     0.003551  d :     0.014504
      dxz     :     0.000059
      dyz     :     0.000030
      dx2y2   :     0.002081
      dxy     :     0.008782
  3 H s       :     0.835629  s :     0.835629
  4 C s       :     3.922409  s :     3.922409
      pz      :     0.003082  p :     2.228109
      px      :     1.177638
      py      :     1.047389
      dz2     :     0.003586  d :     0.014519
      dxz     :     0.000022
      dyz     :     0.000007
      dx2y2   :     0.004343
      dxy     :     0.006562
  5 H s       :     0.835173  s :     0.835173
  6 C s       :     3.921883  s :     3.921883
      pz      :     0.005861  p :     2.226260
      px      :     0.992797
      py      :     1.227603
      dz2     :     0.003606  d :     0.014553
      dxz     :     0.000001
      dyz     :     0.000023
      dx2y2   :     0.010108
      dxy     :     0.000815
  7 H s       :     0.836409  s :     0.836409
  8 C s       :     3.922046  s :     3.922046
      pz      :     0.003494  p :     2.228398
      px      :     1.168842
      py      :     1.056063
      dz2     :     0.003544  d :     0.014503
      dxz     :     0.000069
      dyz     :     0.000034
      dx2y2   :     0.002119
      dxy     :     0.008736
  9 H s       :     0.835664  s :     0.835664
 10 C s       :     3.922436  s :     3.922436
      pz      :     0.002938  p :     2.228228
      px      :     1.178323
      py      :     1.046968
      dz2     :     0.003588  d :     0.014521
      dxz     :     0.000019
      dyz     :     0.000006
      dx2y2   :     0.004398
      dxy     :     0.006510
 11 H s       :     0.835147  s :     0.835147


                     *******************************
                     * LOEWDIN POPULATION ANALYSIS *
                     *******************************

----------------------
LOEWDIN ATOMIC CHARGES
----------------------
   0 C :   -0.111590
   1 H :    0.112598
   2 C :   -0.113752
   3 H :    0.112988
   4 C :   -0.113383
   5 H :    0.113189
   6 C :   -0.111753
   7 H :    0.112638
   8 C :   -0.113581
   9 H :    0.112967
  10 C :   -0.113530
  11 H :    0.113209

-------------------------------
LOEWDIN REDUCED ORBITAL CHARGES
-------------------------------
  0 C s       :     3.755834  s :     3.755834
      pz      :     0.006344  p :     2.336012
      px      :     0.993420
      py      :     1.336248
      dz2     :     0.004922  d :     0.019745
      dxz     :     0.000001
      dyz     :     0.000034
      dx2y2   :     0.013894
      dxy     :     0.000893
  1 H s       :     0.887402  s :     0.887402
  2 C s       :     3.755790  s :     3.755790
      pz      :     0.004078  p :     2.338282
      px      :     1.242362
      py      :     1.091842
      dz2     :     0.004854  d :     0.019681
      dxz     :     0.000082
      dyz     :     0.000040
      dx2y2   :     0.002678
      dxy     :     0.012027
  3 H s       :     0.887012  s :     0.887012
  4 C s       :     3.755889  s :     3.755889
      pz      :     0.003148  p :     2.337793
      px      :     1.268568
      py      :     1.066077
      dz2     :     0.004901  d :     0.019701
      dxz     :     0.000030
      dyz     :     0.000009
      dx2y2   :     0.005830
      dxy     :     0.008930
  5 H s       :     0.886811  s :     0.886811
  6 C s       :     3.755840  s :     3.755840
      pz      :     0.005924  p :     2.336168
      px      :     0.994039
      py      :     1.336205
      dz2     :     0.004923  d :     0.019744
      dxz     :     0.000001
      dyz     :     0.000031
      dx2y2   :     0.013872
      dxy     :     0.000916
  7 H s       :     0.887362  s :     0.887362
  8 C s       :     3.755778  s :     3.755778
      pz      :     0.003764  p :     2.338123
      px      :     1.242669
      py      :     1.091691
      dz2     :     0.004844  d :     0.019680
      dxz     :     0.000096
      dyz     :     0.000045
      dx2y2   :     0.002731
      dxy     :     0.011964
  9 H s       :     0.887033  s :     0.887033
 10 C s       :     3.755908  s :     3.755908
      pz      :     0.002995  p :     2.337920
      px      :     1.269463
      py      :     1.065462
      dz2     :     0.004904  d :     0.019702
      dxz     :     0.000026
      dyz     :     0.000008
      dx2y2   :     0.005906
      dxy     :     0.008858
 11 H s       :     0.886791  s :     0.886791


                      *****************************
                      * MAYER POPULATION ANALYSIS *
                      *****************************

  NA   - Mulliken gross atomic population
  ZA   - Total nuclear charge
  QA   - Mulliken gross atomic charge
  VA   - Mayer's total valence
  BVA  - Mayer's bonded valence
  FA   - Mayer's free valence

  ATOM       NA         ZA         QA         VA         BVA        FA
  0 C      6.1625     6.0000    -0.1625     1.9062     1.9062    -0.0000
  1 H      0.8365     1.0000     0.1635     0.9072     0.9072    -0.0000
  2 C      6.1651     6.0000    -0.1651     1.9060     1.9060     0.0000
  3 H      0.8356     1.0000     0.1644     0.9071     0.9071     0.0000
  4 C      6.1650     6.0000    -0.1650     1.9058     1.9058    -0.0000
  5 H      0.8352     1.0000     0.1648     0.9069     0.9069    -0.0000
  6 C      6.1627     6.0000    -0.1627     1.9062     1.9062     0.0000
  7 H      0.8364     1.0000     0.1636     0.9072     0.9072     0.0000
  8 C      6.1649     6.0000    -0.1649     1.9060     1.9060    -0.0000
  9 H      0.8357     1.0000     0.1643     0.9072     0.9072    -0.0000
 10 C      6.1652     6.0000    -0.1652     1.9058     1.9058    -0.0000
 11 H      0.8351     1.0000     0.1649     0.9069     0.9069    -0.0000

  Mayer bond orders larger than 0.1
B(  0-C ,  1-H ) :   0.9049 B(  0-C ,  2-C ) :   0.4470 B(  0-C ,  6-C ) :   0.1092 
B(  0-C , 10-C ) :   0.4427 B(  2-C ,  3-H ) :   0.9047 B(  2-C ,  4-C ) :   0.4402 
B(  2-C ,  8-C ) :   0.1117 B(  4-C ,  5-H ) :   0.9044 B(  4-C ,  6-C ) :   0.4466 
B(  4-C , 10-C ) :   0.1122 B(  6-C ,  7-H ) :   0.9048 B(  6-C ,  8-C ) :   0.4431 
B(  8-C ,  9-H ) :   0.9047 B(  8-C , 10-C ) :   0.4441 B( 10-C , 11-H ) :   0.9044 


-------
TIMINGS
-------

Total SCF time: 0 days 0 hours 0 min 18 sec 

Total time                  ....      18.286 sec
Sum of individual times     ....      18.005 sec  ( 98.5%)

Fock matrix formation       ....      16.862 sec  ( 92.2%)
  XC integration            ....       3.146 sec  ( 18.7% of F)
    Basis function eval.    ....       1.153 sec  ( 36.6% of XC)
    Density eval.           ....       0.173 sec  (  5.5% of XC)
    XC-Functional eval.     ....       1.096 sec  ( 34.8% of XC)
    XC-Potential eval.      ....       0.117 sec  (  3.7% of XC)
Diagonalization             ....       0.036 sec  (  0.2%)
Density matrix formation    ....       0.002 sec  (  0.0%)
Population analysis         ....       0.012 sec  (  0.1%)
Initial guess               ....       0.227 sec  (  1.2%)
Orbital Transformation      ....       0.000 sec  (  0.0%)
Orbital Orthonormalization  ....       0.000 sec  (  0.0%)
DIIS solution               ....       0.000 sec  (  0.0%)
Grid generation             ....       0.866 sec  (  4.7%)


-------------------------------------------------------------------------------
                          DFT DISPERSION CORRECTION                            
                                                                               
                              DFTD3 V3.1  Rev 1                                
                              USING zero damping                               
-------------------------------------------------------------------------------
The omegaB97X-D3 functional is recognized. Fit by Chai et al.
Active option DFTDOPT                   ...         3   

molecular C6(AA) [au] = 2491.661344 


            DFT-D V3
 parameters
 s6 scaling factor         :     1.0000 
 rs6 scaling factor        :     1.2810 
 s8 scaling factor         :     1.0000 
 rs8 scaling factor        :     1.0940 
 Damping factor alpha6     :    14.0000 
 Damping factor alpha8     :    16.0000 
 ad hoc parameters k1-k3   :    16.0000     1.3333    -4.0000 

 Edisp/kcal,au: -0.609573591034  -0.000971417247 
 E6   /kcal   :  -0.454766537 
 E8   /kcal   :  -0.154807054 
 % E8         :  25.395958125 

-------------------------   ----------------
Dispersion correction           -0.000971417
-------------------------   ----------------


-------------------------   --------------------
FINAL SINGLE POINT ENERGY      -230.371354234189
-------------------------   --------------------


                            ***************************************
                            *     ORCA property calculations      *
                            ***************************************

                                    ---------------------
                                    Active property flags
                                    ---------------------
   (+) Dipole Moment


------------------------------------------------------------------------------
                       ORCA ELECTRIC PROPERTIES CALCULATION
------------------------------------------------------------------------------

Dipole Moment Calculation                       ... on
Quadrupole Moment Calculation                   ... off
Polarizability Calculation                      ... off
GBWName                                         ... Scan_45.gbw
Electron density file                           ... Scan_45.scfp.tmp

-------------
DIPOLE MOMENT
-------------
                                X             Y             Z
Electronic contribution:     -0.00013      -0.00003       0.00166
Nuclear contribution   :     -0.00009      -0.00010      -0.00093
                        -----------------------------------------
Total Dipole Moment    :     -0.00022      -0.00012       0.00072
                        -----------------------------------------
Magnitude (a.u.)       :      0.00076
Magnitude (Debye)      :      0.00194


Timings for individual modules:

Sum of individual times         ...       18.738 sec (=   0.312 min)
GTO integral calculation        ...        0.427 sec (=   0.007 min)   2.3 %
SCF iterations                  ...       18.312 sec (=   0.305 min)  97.7 %
                             ****ORCA TERMINATED NORMALLY****
TOTAL RUN TIME: 0 days 0 hours 0 minutes 19 seconds 127 msec
