
                                 *****************
                                 * O   R   C   A *
                                 *****************

           --- An Ab Initio, DFT and Semiempirical electronic structure package ---

                  #######################################################
                  #                        -***-                        #
                  #  Department of molecular theory and spectroscopy    #
                  #              Directorship: Frank Neese              #
                  # Max Planck Institute for Chemical Energy Conversion #
                  #                  D-45470 Muelheim/Ruhr              #
                  #                       Germany                       #
                  #                                                     #
                  #                  All rights reserved                #
                  #                        -***-                        #
                  #######################################################


                         Program Version 4.0.0.2 - RELEASE -


 With contributions from (in alphabetic order):
   Daniel Aravena         : Magnetic Properties
   Michael Atanasov       : Ab Initio Ligand Field Theory
   Ute Becker             : Parallelization
   Martin Brehm           : Molecular dynamics
   Dmytro Bykov           : SCF Hessian
   Vijay G. Chilkuri      : MRCI spin determinant printing
   Dipayan Datta          : RHF DLPNO-CCSD density
   Achintya Kumar Dutta   : EOM-CC, STEOM-CC
   Dmitry Ganyushin       : Spin-Orbit,Spin-Spin,Magnetic field MRCI
   Yang Guo               : DLPNO-NEVPT2, CIM, IAO-localization
   Andreas Hansen         : Spin unrestricted coupled pair/coupled cluster methods
   Lee Huntington         : MR-EOM, pCC
   Robert Izsak           : Overlap fitted RIJCOSX, COSX-SCS-MP3, EOM
   Christian Kollmar      : KDIIS, OOCD, Brueckner-CCSD(T), CCSD density
   Simone Kossmann        : Meta GGA functionals, TD-DFT gradient, OOMP2, MP2 Hessian
   Martin Krupicka        : AUTO-CI
   Dagmar Lenk            : GEPOL surface
   Dimitrios Liakos       : Extrapolation schemes; parallel MDCI
   Dimitrios Manganas     : ROCIS; embedding schemes
   Dimitrios Pantazis     : SARC Basis sets
   Taras Petrenko         : DFT Hessian,TD-DFT gradient, ASA, ECA, R-Raman, ABS, FL, XAS/XES, NRVS
   Peter Pinski           : DLPNO-MP2
   Christoph Reimann      : Effective Core Potentials
   Marius Retegan         : Local ZFS, SOC
   Christoph Riplinger    : Optimizer, TS searches, QM/MM, DLPNO-CCSD(T), (RO)-DLPNO pert. Triples
   Tobias Risthaus        : Range-separated hybrids, TD-DFT gradient, RPA, STAB
   Michael Roemelt        : Restricted open shell CIS
   Masaaki Saitow         : Open-shell DLPNO
   Barbara Sandhoefer     : DKH picture change effects
   Kantharuban Sivalingam : CASSCF convergence, NEVPT2, FIC-MRCI
   Georgi Stoychev        : AutoAux
   Boris Wezisla          : Elementary symmetry handling
   Frank Wennmohs         : Technical directorship


 We gratefully acknowledge several colleagues who have allowed us to
 interface, adapt or use parts of their codes:
   Stefan Grimme, W. Hujo, H. Kruse,             : VdW corrections, initial TS optimization,
                  C. Bannwarth                     DFT functionals, gCP, sTDA/sTD-DF
   Ed Valeev                                     : LibInt (2-el integral package), F12 methods
   Garnet Chan, S. Sharma, J. Yang, R. Olivares  : DMRG
   Ulf Ekstrom                                   : XCFun DFT Library
   Mihaly Kallay                                 : mrcc  (arbitrary order and MRCC methods)
   Jiri Pittner, Ondrej Demel                    : Mk-CCSD
   Frank Weinhold                                : gennbo (NPA and NBO analysis)
   Christopher J. Cramer and Donald G. Truhlar   : smd solvation model


 Your calculation uses the libint2 library for the computation of 2-el integrals
 For citations please refer to: http://libint.valeyev.net

 This ORCA versions uses:
   CBLAS   interface :  Fast vector & matrix operations
   LAPACKE interface :  Fast linear algebra routines
   SCALAPACK package :  Parallel linear algebra routines


Your calculation utilizes the atom-pairwise dispersion correction
with the zero-damping scheme (D30)
Cite in your paper:
S.Grimme, J.Antony, S.Ehrlich and H.Krieg, J.Chem.Phys., 132, (2010), 154104 
   

XCFun DFT library Copyright 2009-2010 Ulf Ekstrom and contributors.
See http://admol.org/xcfun for more information. This is free soft-
ware; see the source code for copying conditions. There is ABSOLUTELY
NO WARRANTY; not even for MERCHANTABILITY or FITNESS FOR A PARTICULAR
PURPOSE. For details see the documentation. Scientific users of this 
library should cite U. Ekstrom, L. Visscher, R. Bast, A. J. Thorvald-
sen and K. Ruud; J.Chem.Theor.Comp. 2010, DOI: 10.1021/ct100117s
XCFun Version 0.99 
Your calculation utilizes the basis: 6-31G(d)
   H-He, Li-Ne : W. J. Hehre, R. Ditchfield and J.A. Pople, J. Chem. Phys. 56, 2257 (1972).
                 Note: He and Ne are unpublished basis sets taken from the Gaussian program.
                 Note: Li and B from J. D. Dill and J. A. Pople, J. Chem. Phys. 62, 2921 (1975).
   Na - Ar     : M. M. Francl, W. J. Pietro, W. J. Hehre, J. S. Binkley, M. S. Gordon, 
                 D. J. DeFrees and J. A. Pople, J. Chem. Phys. 77, 3654 (1982).
   K - Zn      : V. A. Rassolov, J. A. Pople, M. A. Ratner, and T. L. Windus, J. Chem. Phys. 109, 1223 (1998).

================================================================================
                                        WARNINGS
                       Please study these warnings very carefully!
================================================================================

Warning: TCutStore was < 0. Adjusted to Thresh (uncritical)

INFO   : the flag for use of LIBINT has been found!

================================================================================
                                       INPUT FILE
================================================================================
NAME = initial6.inp
|  1> ! WB97X-D3 6-31G(d) VerySlowConv
|  2> ! KDIIS NOSOSCF
|  3> %base "Scan_6"
|  4> 
|  5> %scf
|  6> maxiter 999
|  7> end
|  8> 
|  9> * xyz 0 1
| 10> C          1.371370466820   -2.838052415311   -0.000000000000
| 11> H          2.464669854619   -2.921751063111    0.000000000000
| 12> C          0.832937184146   -1.715372116932   -0.000000000000
| 13> H          1.452072034031   -0.810396397454   -0.000000000000
| 14> C         -0.408549116053   -1.620328867940   -0.000000000000
| 15> H         -0.882713653706   -0.631654499852   -0.000000000000
| 16> C         -1.111602133488   -2.647965918022   -0.000000000000
| 17> H         -2.204901521286   -2.564267270222   -0.000000000000
| 18> C         -0.573168850812   -3.770646216401   -0.000000000000
| 19> H         -1.192303700697   -4.675621935879   -0.000000000000
| 20> C          0.668317449387   -3.865689465394   -0.000000000000
| 21> H          1.142481987039   -4.854363833482    0.000000000000
| 22> **                         ****END OF INPUT****
================================================================================

                       ****************************
                       * Single Point Calculation *
                       ****************************

---------------------------------
CARTESIAN COORDINATES (ANGSTROEM)
---------------------------------
  C      1.371370   -2.838052   -0.000000
  H      2.464670   -2.921751    0.000000
  C      0.832937   -1.715372   -0.000000
  H      1.452072   -0.810396   -0.000000
  C     -0.408549   -1.620329   -0.000000
  H     -0.882714   -0.631654   -0.000000
  C     -1.111602   -2.647966   -0.000000
  H     -2.204902   -2.564267   -0.000000
  C     -0.573169   -3.770646   -0.000000
  H     -1.192304   -4.675622   -0.000000
  C      0.668317   -3.865689   -0.000000
  H      1.142482   -4.854364    0.000000

----------------------------
CARTESIAN COORDINATES (A.U.)
----------------------------
  NO LB      ZA    FRAG     MASS         X           Y           Z
   0 C     6.0000    0    12.011    2.591515   -5.363142   -0.000000
   1 H     1.0000    0     1.008    4.657551   -5.521309    0.000000
   2 C     6.0000    0    12.011    1.574023   -3.241584   -0.000000
   3 H     1.0000    0     1.008    2.744018   -1.531427   -0.000000
   4 C     6.0000    0    12.011   -0.772046   -3.061978   -0.000000
   5 H     1.0000    0     1.008   -1.668087   -1.193654   -0.000000
   6 C     6.0000    0    12.011   -2.100624   -5.003930   -0.000000
   7 H     1.0000    0     1.008   -4.166660   -4.845763   -0.000000
   8 C     6.0000    0    12.011   -1.083132   -7.125489   -0.000000
   9 H     1.0000    0     1.008   -2.253127   -8.835645   -0.000000
  10 C     6.0000    0    12.011    1.262937   -7.305094   -0.000000
  11 H     1.0000    0     1.008    2.158978   -9.173418    0.000000

--------------------------------
INTERNAL COORDINATES (ANGSTROEM)
--------------------------------
 C      0   0   0     0.000000000000     0.00000000     0.00000000
 H      1   0   0     1.096498524853     0.00000000     0.00000000
 C      1   2   0     1.245119051440   119.99999998     0.00000000
 H      3   1   2     1.096498524936   119.99999998     0.00000000
 C      3   1   2     1.245119051642   120.00000004   180.00000000
 H      5   3   1     1.096498524797   120.00000000   180.00000000
 C      5   3   1     1.245119051346   119.99999997     0.00000000
 H      7   5   3     1.096498524852   120.00000002   180.00000000
 C      7   5   3     1.245119051441   119.99999999     0.00000000
 H      9   7   5     1.096498524936   119.99999998   180.00000085
 C      1   2   3     1.245119051346   120.00000002   180.00000000
 H     11   1   2     1.096498524797   120.00000003     0.00000000

---------------------------
INTERNAL COORDINATES (A.U.)
---------------------------
 C      0   0   0     0.000000000000     0.00000000     0.00000000
 H      1   0   0     2.072081918221     0.00000000     0.00000000
 C      1   2   0     2.352934011350   119.99999998     0.00000000
 H      3   1   2     2.072081918378   119.99999998     0.00000000
 C      3   1   2     2.352934011730   120.00000004   180.00000000
 H      5   3   1     2.072081918115   120.00000000   180.00000000
 C      5   3   1     2.352934011172   119.99999997     0.00000000
 H      7   5   3     2.072081918219   120.00000002   180.00000000
 C      7   5   3     2.352934011352   119.99999999     0.00000000
 H      9   7   5     2.072081918378   119.99999998   180.00000085
 C      1   2   3     2.352934011172   120.00000002   180.00000000
 H     11   1   2     2.072081918114   120.00000003     0.00000000

---------------------
BASIS SET INFORMATION
---------------------
There are 2 groups of distinct atoms

 Group   1 Type C   : 10s4p1d contracted to 3s2p1d pattern {631/31/1}
 Group   2 Type H   : 4s contracted to 2s pattern {31}

Atom   0C    basis set group =>   1
Atom   1H    basis set group =>   2
Atom   2C    basis set group =>   1
Atom   3H    basis set group =>   2
Atom   4C    basis set group =>   1
Atom   5H    basis set group =>   2
Atom   6C    basis set group =>   1
Atom   7H    basis set group =>   2
Atom   8C    basis set group =>   1
Atom   9H    basis set group =>   2
Atom  10C    basis set group =>   1
Atom  11H    basis set group =>   2
------------------------------------------------------------------------------
                           ORCA GTO INTEGRAL CALCULATION
------------------------------------------------------------------------------

                         BASIS SET STATISTICS AND STARTUP INFO

 # of primitive gaussian shells          ...  114
 # of primitive gaussian functions       ...  186
 # of contracted shells                  ...   48
 # of contracted basis functions         ...   96
 Highest angular momentum                ...    2
 Maximum contraction depth               ...    6
 Integral package used                   ... LIBINT
 Integral threshhold            Thresh   ...  1.000e-10
 Primitive cut-off              TCut     ...  1.000e-11


------------------------------ INTEGRAL EVALUATION ----------------------------


 * One electron integrals 
 Pre-screening matrix                    ... done
 Shell pair data                         ... done (   0.001 sec)

-------------------------------------------------------------------------------
                                 ORCA SCF
-------------------------------------------------------------------------------

------------
SCF SETTINGS
------------
Hamiltonian:
 Density Functional     Method          .... DFT(GTOs)
 Exchange Functional    Exchange        .... WB97X-D3
 Correlation Functional Correlation     .... WB97X-D3
 Gradients option       PostSCFGGA      .... off
 Hybrid DFT is turned on
   Fraction HF Exchange ScalHFX         ....  0.195728
   Scaling of DF-GGA-X  ScalDFX         ....  0.000000
   Scaling of DF-GGA-C  ScalDFC         ....  1.000000
   Scaling of DF-LDA-C  ScalLDAC        ....  1.000000
   Perturbative correction              ....  0.000000
 Long-range corrected/Screened/Range-Separated Hybrid DFT is turned on
   Amount of maximum screened exact exchange              ....  0.804272
   Range separation parameter mu (erf(mu*r12)/r12)        ....  0.250000


General Settings:
 Integral files         IntName         .... Scan_6
 Hartree-Fock type      HFTyp           .... RHF
 Total Charge           Charge          ....    0
 Multiplicity           Mult            ....    1
 Number of Electrons    NEL             ....   42
 Basis Dimension        Dim             ....   96
 Nuclear Repulsion      ENuc            ....    223.7691760627 Eh

Convergence Acceleration:
 DIIS                   CNVDIIS         .... on
   Start iteration      DIISMaxIt       ....     0
   Startup error        DIISStart       ....  0.200000
   # of expansion vecs  DIISMaxEq       ....     5
   Bias factor          DIISBfac        ....   1.050
   Max. coefficient     DIISMaxC        ....  10.000
 Newton-Raphson         CNVNR           .... off
 SOSCF                  CNVSOSCF        .... off
 Level Shifting         CNVShift        .... off
 Zerner damping         CNVZerner       .... off
 Static damping         CNVDamp         .... off
 Fernandez-Rico         CNVRico         .... off

SCF Procedure:
 Maximum # iterations   MaxIter         ....   999
 SCF integral mode      SCFMode         .... Direct
   Integral package                     .... LIBINT
 Reset frequeny         DirectResetFreq ....    20
 Integral Threshold     Thresh          ....  1.000e-10 Eh
 Primitive CutOff       TCut            ....  1.000e-11 Eh

Convergence Tolerance:
 Convergence Check Mode ConvCheckMode   .... All-Criteria
 Convergence forced     ConvForced      .... 0
 Energy Change          TolE            ....  1.000e-06 Eh
 Max Density Change     TolMaxP         ....  1.000e-05
 RMS Density Change     TolRMSP         ....  1.000e-06
 DIIS Error             TolErr          ....  1.000e-06


Diagonalization of the overlap matrix:
Smallest eigenvalue                        ... 1.809e-04
Time for diagonalization                   ...    0.003 sec
Threshold for overlap eigenvalues          ... 1.000e-08
Number of eigenvalues below threshold      ... 0
Time for construction of square roots      ...    0.006 sec
Total time needed                          ...    0.008 sec

-------------------
DFT GRID GENERATION
-------------------

General Integration Accuracy     IntAcc      ...  4.340
Radial Grid Type                 RadialGrid  ... Gauss-Chebyshev
Angular Grid (max. acc.)         AngularGrid ... Lebedev-110
Angular grid pruning method      GridPruning ... 3 (G Style)
Weight generation scheme         WeightScheme... Becke
Basis function cutoff            BFCut       ...    1.0000e-10
Integration weight cutoff        WCut        ...    1.0000e-14
Grids for H and He will be reduced by one unit

# of grid points (after initial pruning)     ...  14700 (   0.0 sec)
# of grid points (after weights+screening)   ...  13692 (   0.0 sec)
nearest neighbour list constructed           ...    0.0 sec
Grid point re-assignment to atoms done       ...    0.0 sec
Grid point division into batches done        ...    0.0 sec
Reduced shell lists constructed in    0.2 sec

Total number of grid points                  ...    13692
Total number of batches                      ...      220
Average number of points per batch           ...       62
Average number of grid points per atom       ...     1141
Average number of shells per batch           ...    38.89 (81.02%)
Average number of basis functions per batch  ...    80.72 (84.08%)
Average number of large shells per batch     ...    32.69 (84.05%)
Average number of large basis fcns per batch ...    68.36 (84.69%)
Maximum spatial batch extension              ...  17.99, 20.27, 25.60 au
Average spatial batch extension              ...   3.54,  3.87,  5.16 au

Time for grid setup =    0.246 sec

------------------------------
INITIAL GUESS: MODEL POTENTIAL
------------------------------
Loading Hartree-Fock densities                     ... done
Calculating cut-offs                               ... done
Setting up the integral package                    ... done
Initializing the effective Hamiltonian             ... done
Starting the Coulomb interaction                   ... done (   0.1 sec)
Reading the grid                                   ... done
Mapping shells                                     ... done
Starting the XC term evaluation                    ... done (   0.2 sec)
  promolecular density results
     # of electrons  =     42.006383181
     EX              =    -32.755988246
     EC              =     -1.409713754
     EX+EC           =    -34.165702001
Transforming the Hamiltonian                       ... done (   0.0 sec)
Diagonalizing the Hamiltonian                      ... done (   0.0 sec)
Back transforming the eigenvectors                 ... done (   0.0 sec)
Now organizing SCF variables                       ... done
                      ------------------
                      INITIAL GUESS DONE (   0.7 sec)
                      ------------------
--------------
SCF ITERATIONS
--------------
ITER       Energy         Delta-E        Max-DP      RMS-DP      [F,P]   Gradient Norm
               ***  Starting incremental Fock matrix formation  ***
                             ****Resetting KDIIS****
                             ****Turning on KDIIS(Cayley)****
  0   -231.7304234162   0.000000000000 0.02641935  0.00162199  0.1312334   0.107926864
  1   -231.8198158646  -0.089392448434 0.02081308  0.00169348  0.1097321   0.088690835
  2   -231.8826326429  -0.062816778287 0.03395798  0.00263320  0.0899406   0.072653718
  3   -231.9597705577  -0.077137914755 0.05127275  0.00372107  0.0558235   0.045213224
  4   -232.0077458101  -0.047975252425 0.00550463  0.00053750  0.0040521   0.003317685
  5   -232.0080158102  -0.000270000085 0.01092560  0.00102041  0.0025517   0.001842939
  6   -232.0080708206  -0.000055010404 0.00541321  0.00052774  0.0014215   0.001410118
  7   -232.0081412151  -0.000070394542 0.00060189  0.00005585  0.0001625   0.000155040
                          ***Energy convergence achieved***
  8   -232.0081420542  -0.000000839100 0.00003182  0.00000223  0.0000185   0.000019285

            ***Energy convergence in two consecutive cycles with***
                    ***'reasonable' density convergence***
                       *** signaling convergence ***

                    *** KDIIS BlockDiag ( 0.001 sec) ***

               *****************************************************
               *                     SUCCESS                       *
               *           SCF CONVERGED AFTER   9 CYCLES          *
               *****************************************************

Setting up the final grid:

General Integration Accuracy     IntAcc      ...  4.670
Radial Grid Type                 RadialGrid  ... Gauss-Chebyshev
Angular Grid (max. acc.)         AngularGrid ... Lebedev-302
Angular grid pruning method      GridPruning ... 3 (G Style)
Weight generation scheme         WeightScheme... Becke
Basis function cutoff            BFCut       ...    1.0000e-10
Integration weight cutoff        WCut        ...    1.0000e-14
Grids for H and He will be reduced by one unit

# of grid points (after initial pruning)     ...  57636 (   0.0 sec)
# of grid points (after weights+screening)   ...  53092 (   0.1 sec)
nearest neighbour list constructed           ...    0.0 sec
Grid point re-assignment to atoms done       ...    0.0 sec
Grid point division into batches done        ...    0.2 sec
Reduced shell lists constructed in    0.8 sec

Total number of grid points                  ...    53092
Total number of batches                      ...      834
Average number of points per batch           ...       63
Average number of grid points per atom       ...     4424
Average number of shells per batch           ...    35.22 (73.38%)
Average number of basis functions per batch  ...    73.10 (76.15%)
Average number of large shells per batch     ...    29.11 (82.65%)
Average number of large basis fcns per batch ...    60.44 (82.68%)
Maximum spatial batch extension              ...  17.18, 19.96, 23.16 au
Average spatial batch extension              ...   2.47,  2.60,  3.00 au

Final grid set up in    0.9 sec
Final integration                            ... done (   0.9 sec)
Change in XC energy                          ...     0.000475544
Integrated number of electrons               ...    41.999972410
Previous integrated no of electrons          ...    42.004701849

----------------
TOTAL SCF ENERGY
----------------

Total Energy       :         -232.00766652 Eh           -6313.24957 eV

Components:
Nuclear Repulsion  :          223.76917606 Eh            6089.06884 eV
Electronic Energy  :         -455.77684258 Eh          -12402.31841 eV
One Electron Energy:         -754.14539191 Eh          -20521.33940 eV
Two Electron Energy:          298.36854933 Eh            8119.02099 eV

Virial components:
Potential Energy   :         -465.52310555 Eh          -12667.52771 eV
Kinetic Energy     :          233.51543904 Eh            6354.27814 eV
Virial Ratio       :            1.99354316


DFT components:
N(Alpha)           :       20.999986205191 electrons
N(Beta)            :       20.999986205191 electrons
N(Total)           :       41.999972410382 electrons
E(XC)              :      -24.202987989681 Eh       

---------------
SCF CONVERGENCE
---------------

  Last Energy change         ...   -6.8605e-09  Tolerance :   1.0000e-06
  Last MAX-Density change    ...    1.8009e-05  Tolerance :   1.0000e-05
  Last RMS-Density change    ...    1.4663e-06  Tolerance :   1.0000e-06
  Last DIIS Error            ...    6.1649e-06  Tolerance :   1.0000e-06

             **** THE GBW FILE WAS UPDATED (Scan_6.gbw) ****
             **** DENSITY FILE WAS UPDATED (Scan_6.scfp.tmp) ****
             **** ENERGY FILE WAS UPDATED (Scan_6.en.tmp) ****
----------------
ORBITAL ENERGIES
----------------

  NO   OCC          E(Eh)            E(eV) 
   0   2.0000     -10.244667      -278.7716 
   1   2.0000     -10.243939      -278.7517 
   2   2.0000     -10.243792      -278.7478 
   3   2.0000     -10.242303      -278.7072 
   4   2.0000     -10.242161      -278.7034 
   5   2.0000     -10.241472      -278.6846 
   6   2.0000      -1.049932       -28.5701 
   7   2.0000      -0.890059       -24.2197 
   8   2.0000      -0.889985       -24.2177 
   9   2.0000      -0.721269       -19.6267 
  10   2.0000      -0.721104       -19.6222 
  11   2.0000      -0.661698       -18.0057 
  12   2.0000      -0.581645       -15.8274 
  13   2.0000      -0.524337       -14.2679 
  14   2.0000      -0.521876       -14.2010 
  15   2.0000      -0.521691       -14.1959 
  16   2.0000      -0.516773       -14.0621 
  17   2.0000      -0.416229       -11.3262 
  18   2.0000      -0.415847       -11.3158 
  19   2.0000      -0.356999        -9.7144 
  20   2.0000      -0.356785        -9.7086 
  21   0.0000       0.120768         3.2863 
  22   0.0000       0.121022         3.2932 
  23   0.0000       0.165501         4.5035 
  24   0.0000       0.232346         6.3224 
  25   0.0000       0.232915         6.3379 
  26   0.0000       0.302409         8.2290 
  27   0.0000       0.302811         8.2399 
  28   0.0000       0.312697         8.5089 
  29   0.0000       0.347522         9.4566 
  30   0.0000       0.441235        12.0066 
  31   0.0000       0.441829        12.0228 
  32   0.0000       0.491614        13.3775 
  33   0.0000       0.492344        13.3974 
  34   0.0000       0.530725        14.4418 
  35   0.0000       0.603192        16.4137 
  36   0.0000       0.655692        17.8423 
  37   0.0000       0.673403        18.3242 
  38   0.0000       0.673647        18.3309 
  39   0.0000       0.732182        19.9237 
  40   0.0000       0.746371        20.3098 
  41   0.0000       0.746432        20.3114 
  42   0.0000       0.774038        21.0626 
  43   0.0000       0.782683        21.2979 
  44   0.0000       0.783594        21.3227 
  45   0.0000       0.791740        21.5443 
  46   0.0000       0.803598        21.8670 
  47   0.0000       0.803934        21.8762 
  48   0.0000       0.888155        24.1679 
  49   0.0000       0.915442        24.9104 
  50   0.0000       0.915559        24.9136 
  51   0.0000       0.944260        25.6946 
  52   0.0000       0.944539        25.7022 
  53   0.0000       1.025820        27.9140 
  54   0.0000       1.081269        29.4228 
  55   0.0000       1.133163        30.8349 
  56   0.0000       1.133367        30.8405 
  57   0.0000       1.245648        33.8958 
  58   0.0000       1.254953        34.1490 
  59   0.0000       1.255575        34.1659 
  60   0.0000       1.352859        36.8132 
  61   0.0000       1.353568        36.8324 
  62   0.0000       1.382562        37.6214 
  63   0.0000       1.421378        38.6777 
  64   0.0000       1.470871        40.0244 
  65   0.0000       1.605119        43.6775 
  66   0.0000       1.605478        43.6873 
  67   0.0000       1.649731        44.8914 
  68   0.0000       1.650139        44.9026 
  69   0.0000       1.677133        45.6371 
  70   0.0000       1.677434        45.6453 
  71   0.0000       1.776382        48.3378 
  72   0.0000       2.019020        54.9403 
  73   0.0000       2.074835        56.4591 
  74   0.0000       2.166650        58.9575 
  75   0.0000       2.189786        59.5871 
  76   0.0000       2.191045        59.6214 
  77   0.0000       2.371615        64.5349 
  78   0.0000       2.372205        64.5510 
  79   0.0000       2.463793        67.0432 
  80   0.0000       2.464884        67.0729 
  81   0.0000       2.477946        67.4283 
  82   0.0000       2.479466        67.4697 
  83   0.0000       2.575142        70.0732 
  84   0.0000       2.575388        70.0799 
  85   0.0000       2.644609        71.9635 
  86   0.0000       2.742838        74.6364 
  87   0.0000       2.743804        74.6627 
  88   0.0000       2.937349        79.9293 
  89   0.0000       3.082824        83.8879 
  90   0.0000       3.085753        83.9676 
  91   0.0000       3.086981        84.0010 
  92   0.0000       3.195288        86.9482 
  93   0.0000       3.196986        86.9944 
  94   0.0000       3.358268        91.3831 
  95   0.0000       4.032832       109.7389 

                    ********************************
                    * MULLIKEN POPULATION ANALYSIS *
                    ********************************

-----------------------
MULLIKEN ATOMIC CHARGES
-----------------------
   0 C :   -0.152943
   1 H :    0.151452
   2 C :   -0.148659
   3 H :    0.150049
   4 C :   -0.148551
   5 H :    0.148652
   6 C :   -0.152942
   7 H :    0.151452
   8 C :   -0.148659
   9 H :    0.150049
  10 C :   -0.148550
  11 H :    0.148652
Sum of atomic charges:   -0.0000000

--------------------------------
MULLIKEN REDUCED ORBITAL CHARGES
--------------------------------
  0 C s       :     3.079798  s :     3.079798
      pz      :     0.986246  p :     3.022760
      px      :     1.055801
      py      :     0.980713
      dz2     :     0.003478  d :     0.050385
      dxz     :     0.003917
      dyz     :     0.009881
      dx2y2   :     0.018716
      dxy     :     0.014393
  1 H s       :     0.848548  s :     0.848548
  2 C s       :     3.081071  s :     3.081071
      pz      :     0.986339  p :     3.017222
      px      :     1.001403
      py      :     1.029480
      dz2     :     0.003447  d :     0.050366
      dxz     :     0.007994
      dyz     :     0.005821
      dx2y2   :     0.014922
      dxy     :     0.018183
  3 H s       :     0.849951  s :     0.849951
  4 C s       :     3.081298  s :     3.081298
      pz      :     0.985991  p :     3.016861
      px      :     0.992181
      py      :     1.038688
      dz2     :     0.003478  d :     0.050392
      dxz     :     0.008793
      dyz     :     0.005018
      dx2y2   :     0.016051
      dxy     :     0.017053
  5 H s       :     0.851348  s :     0.851348
  6 C s       :     3.079798  s :     3.079798
      pz      :     0.986246  p :     3.022760
      px      :     1.055801
      py      :     0.980713
      dz2     :     0.003478  d :     0.050385
      dxz     :     0.003917
      dyz     :     0.009881
      dx2y2   :     0.018716
      dxy     :     0.014393
  7 H s       :     0.848548  s :     0.848548
  8 C s       :     3.081071  s :     3.081071
      pz      :     0.986339  p :     3.017222
      px      :     1.001403
      py      :     1.029480
      dz2     :     0.003447  d :     0.050366
      dxz     :     0.007994
      dyz     :     0.005821
      dx2y2   :     0.014922
      dxy     :     0.018183
  9 H s       :     0.849951  s :     0.849951
 10 C s       :     3.081297  s :     3.081297
      pz      :     0.985991  p :     3.016861
      px      :     0.992181
      py      :     1.038688
      dz2     :     0.003478  d :     0.050392
      dxz     :     0.008793
      dyz     :     0.005018
      dx2y2   :     0.016051
      dxy     :     0.017053
 11 H s       :     0.851348  s :     0.851348


                     *******************************
                     * LOEWDIN POPULATION ANALYSIS *
                     *******************************

----------------------
LOEWDIN ATOMIC CHARGES
----------------------
   0 C :   -0.132005
   1 H :    0.131845
   2 C :   -0.131792
   3 H :    0.131805
   4 C :   -0.131508
   5 H :    0.131655
   6 C :   -0.132005
   7 H :    0.131845
   8 C :   -0.131792
   9 H :    0.131805
  10 C :   -0.131508
  11 H :    0.131655

-------------------------------
LOEWDIN REDUCED ORBITAL CHARGES
-------------------------------
  0 C s       :     2.839650  s :     2.839650
      pz      :     0.969822  p :     3.159906
      px      :     1.065286
      py      :     1.124799
      dz2     :     0.008623  d :     0.132448
      dxz     :     0.005798
      dyz     :     0.024365
      dx2y2   :     0.054098
      dxy     :     0.039565
  1 H s       :     0.868155  s :     0.868155
  2 C s       :     2.839678  s :     2.839678
      pz      :     0.970040  p :     3.159597
      px      :     1.105682
      py      :     1.083875
      dz2     :     0.008603  d :     0.132517
      dxz     :     0.018486
      dyz     :     0.011694
      dx2y2   :     0.041320
      dxy     :     0.052414
  3 H s       :     0.868195  s :     0.868195
  4 C s       :     2.839678  s :     2.839678
      pz      :     0.969637  p :     3.159366
      px      :     1.114253
      py      :     1.075476
      dz2     :     0.008622  d :     0.132464
      dxz     :     0.020956
      dyz     :     0.009203
      dx2y2   :     0.045201
      dxy     :     0.048481
  5 H s       :     0.868345  s :     0.868345
  6 C s       :     2.839650  s :     2.839650
      pz      :     0.969822  p :     3.159906
      px      :     1.065286
      py      :     1.124799
      dz2     :     0.008623  d :     0.132448
      dxz     :     0.005798
      dyz     :     0.024365
      dx2y2   :     0.054098
      dxy     :     0.039565
  7 H s       :     0.868155  s :     0.868155
  8 C s       :     2.839678  s :     2.839678
      pz      :     0.970040  p :     3.159597
      px      :     1.105682
      py      :     1.083875
      dz2     :     0.008603  d :     0.132517
      dxz     :     0.018486
      dyz     :     0.011694
      dx2y2   :     0.041320
      dxy     :     0.052414
  9 H s       :     0.868195  s :     0.868195
 10 C s       :     2.839678  s :     2.839678
      pz      :     0.969637  p :     3.159366
      px      :     1.114253
      py      :     1.075476
      dz2     :     0.008622  d :     0.132464
      dxz     :     0.020956
      dyz     :     0.009203
      dx2y2   :     0.045201
      dxy     :     0.048481
 11 H s       :     0.868345  s :     0.868345


                      *****************************
                      * MAYER POPULATION ANALYSIS *
                      *****************************

  NA   - Mulliken gross atomic population
  ZA   - Total nuclear charge
  QA   - Mulliken gross atomic charge
  VA   - Mayer's total valence
  BVA  - Mayer's bonded valence
  FA   - Mayer's free valence

  ATOM       NA         ZA         QA         VA         BVA        FA
  0 C      6.1529     6.0000    -0.1529     4.0397     4.0397     0.0000
  1 H      0.8485     1.0000     0.1515     0.9304     0.9304     0.0000
  2 C      6.1487     6.0000    -0.1487     4.0383     4.0383    -0.0000
  3 H      0.8500     1.0000     0.1500     0.9308     0.9308    -0.0000
  4 C      6.1486     6.0000    -0.1486     4.0410     4.0410    -0.0000
  5 H      0.8513     1.0000     0.1487     0.9315     0.9315    -0.0000
  6 C      6.1529     6.0000    -0.1529     4.0397     4.0397    -0.0000
  7 H      0.8485     1.0000     0.1515     0.9304     0.9304    -0.0000
  8 C      6.1487     6.0000    -0.1487     4.0383     4.0383     0.0000
  9 H      0.8500     1.0000     0.1500     0.9308     0.9308     0.0000
 10 C      6.1486     6.0000    -0.1486     4.0410     4.0410     0.0000
 11 H      0.8513     1.0000     0.1487     0.9315     0.9315    -0.0000

  Mayer bond orders larger than 0.1
B(  0-C ,  1-H ) :   0.9218 B(  0-C ,  2-C ) :   1.5009 B(  0-C , 10-C ) :   1.5028 
B(  2-C ,  3-H ) :   0.9224 B(  2-C ,  4-C ) :   1.5012 B(  4-C ,  5-H ) :   0.9228 
B(  4-C ,  6-C ) :   1.5028 B(  6-C ,  7-H ) :   0.9218 B(  6-C ,  8-C ) :   1.5009 
B(  8-C ,  9-H ) :   0.9224 B(  8-C , 10-C ) :   1.5012 B( 10-C , 11-H ) :   0.9228 


-------
TIMINGS
-------

Total SCF time: 0 days 0 hours 0 min 45 sec 

Total time                  ....      45.330 sec
Sum of individual times     ....      45.176 sec  ( 99.7%)

Fock matrix formation       ....      43.575 sec  ( 96.1%)
  XC integration            ....       3.344 sec  (  7.7% of F)
    Basis function eval.    ....       1.716 sec  ( 51.3% of XC)
    Density eval.           ....       0.275 sec  (  8.2% of XC)
    XC-Functional eval.     ....       0.550 sec  ( 16.4% of XC)
    XC-Potential eval.      ....       0.520 sec  ( 15.5% of XC)
Diagonalization             ....       0.017 sec  (  0.0%)
Density matrix formation    ....       0.001 sec  (  0.0%)
Population analysis         ....       0.012 sec  (  0.0%)
Initial guess               ....       0.423 sec  (  0.9%)
Orbital Transformation      ....       0.000 sec  (  0.0%)
Orbital Orthonormalization  ....       0.000 sec  (  0.0%)
DIIS solution               ....       0.000 sec  (  0.0%)
Grid generation             ....       1.148 sec  (  2.5%)


-------------------------------------------------------------------------------
                          DFT DISPERSION CORRECTION                            
                                                                               
                              DFTD3 V3.1  Rev 1                                
                              USING zero damping                               
-------------------------------------------------------------------------------
The omegaB97X-D3 functional is recognized. Fit by Chai et al.
Active option DFTDOPT                   ...         3   

molecular C6(AA) [au] = 1456.811334 


            DFT-D V3
 parameters
 s6 scaling factor         :     1.0000 
 rs6 scaling factor        :     1.2810 
 s8 scaling factor         :     1.0000 
 rs8 scaling factor        :     1.0940 
 Damping factor alpha6     :    14.0000 
 Damping factor alpha8     :    16.0000 
 ad hoc parameters k1-k3   :    16.0000     1.3333    -4.0000 

 Edisp/kcal,au: -1.275319478800  -0.002032350738 
 E6   /kcal   :  -0.468892741 
 E8   /kcal   :  -0.806426738 
 % E8         :  63.233311437 

-------------------------   ----------------
Dispersion correction           -0.002032351
-------------------------   ----------------


-------------------------   --------------------
FINAL SINGLE POINT ENERGY      -232.009698867520
-------------------------   --------------------


                            ***************************************
                            *     ORCA property calculations      *
                            ***************************************

                                    ---------------------
                                    Active property flags
                                    ---------------------
   (+) Dipole Moment


------------------------------------------------------------------------------
                       ORCA ELECTRIC PROPERTIES CALCULATION
------------------------------------------------------------------------------

Dipole Moment Calculation                       ... on
Quadrupole Moment Calculation                   ... off
Polarizability Calculation                      ... off
GBWName                                         ... Scan_6.gbw
Electron density file                           ... Scan_6.scfp.tmp

-------------
DIPOLE MOMENT
-------------
                                X             Y             Z
Electronic contribution:      0.00000       0.00000       0.00000
Nuclear contribution   :     -0.00000      -0.00000       0.00000
                        -----------------------------------------
Total Dipole Moment    :      0.00000       0.00000       0.00000
                        -----------------------------------------
Magnitude (a.u.)       :      0.00000
Magnitude (Debye)      :      0.00000


Timings for individual modules:

Sum of individual times         ...       45.675 sec (=   0.761 min)
GTO integral calculation        ...        0.323 sec (=   0.005 min)   0.7 %
SCF iterations                  ...       45.352 sec (=   0.756 min)  99.3 %
                             ****ORCA TERMINATED NORMALLY****
TOTAL RUN TIME: 0 days 0 hours 0 minutes 45 seconds 998 msec
