
                                 *****************
                                 * O   R   C   A *
                                 *****************

           --- An Ab Initio, DFT and Semiempirical electronic structure package ---

                  #######################################################
                  #                        -***-                        #
                  #  Department of molecular theory and spectroscopy    #
                  #              Directorship: Frank Neese              #
                  # Max Planck Institute for Chemical Energy Conversion #
                  #                  D-45470 Muelheim/Ruhr              #
                  #                       Germany                       #
                  #                                                     #
                  #                  All rights reserved                #
                  #                        -***-                        #
                  #######################################################


                         Program Version 4.0.0.2 - RELEASE -


 With contributions from (in alphabetic order):
   Daniel Aravena         : Magnetic Properties
   Michael Atanasov       : Ab Initio Ligand Field Theory
   Ute Becker             : Parallelization
   Martin Brehm           : Molecular dynamics
   Dmytro Bykov           : SCF Hessian
   Vijay G. Chilkuri      : MRCI spin determinant printing
   Dipayan Datta          : RHF DLPNO-CCSD density
   Achintya Kumar Dutta   : EOM-CC, STEOM-CC
   Dmitry Ganyushin       : Spin-Orbit,Spin-Spin,Magnetic field MRCI
   Yang Guo               : DLPNO-NEVPT2, CIM, IAO-localization
   Andreas Hansen         : Spin unrestricted coupled pair/coupled cluster methods
   Lee Huntington         : MR-EOM, pCC
   Robert Izsak           : Overlap fitted RIJCOSX, COSX-SCS-MP3, EOM
   Christian Kollmar      : KDIIS, OOCD, Brueckner-CCSD(T), CCSD density
   Simone Kossmann        : Meta GGA functionals, TD-DFT gradient, OOMP2, MP2 Hessian
   Martin Krupicka        : AUTO-CI
   Dagmar Lenk            : GEPOL surface
   Dimitrios Liakos       : Extrapolation schemes; parallel MDCI
   Dimitrios Manganas     : ROCIS; embedding schemes
   Dimitrios Pantazis     : SARC Basis sets
   Taras Petrenko         : DFT Hessian,TD-DFT gradient, ASA, ECA, R-Raman, ABS, FL, XAS/XES, NRVS
   Peter Pinski           : DLPNO-MP2
   Christoph Reimann      : Effective Core Potentials
   Marius Retegan         : Local ZFS, SOC
   Christoph Riplinger    : Optimizer, TS searches, QM/MM, DLPNO-CCSD(T), (RO)-DLPNO pert. Triples
   Tobias Risthaus        : Range-separated hybrids, TD-DFT gradient, RPA, STAB
   Michael Roemelt        : Restricted open shell CIS
   Masaaki Saitow         : Open-shell DLPNO
   Barbara Sandhoefer     : DKH picture change effects
   Kantharuban Sivalingam : CASSCF convergence, NEVPT2, FIC-MRCI
   Georgi Stoychev        : AutoAux
   Boris Wezisla          : Elementary symmetry handling
   Frank Wennmohs         : Technical directorship


 We gratefully acknowledge several colleagues who have allowed us to
 interface, adapt or use parts of their codes:
   Stefan Grimme, W. Hujo, H. Kruse,             : VdW corrections, initial TS optimization,
                  C. Bannwarth                     DFT functionals, gCP, sTDA/sTD-DF
   Ed Valeev                                     : LibInt (2-el integral package), F12 methods
   Garnet Chan, S. Sharma, J. Yang, R. Olivares  : DMRG
   Ulf Ekstrom                                   : XCFun DFT Library
   Mihaly Kallay                                 : mrcc  (arbitrary order and MRCC methods)
   Jiri Pittner, Ondrej Demel                    : Mk-CCSD
   Frank Weinhold                                : gennbo (NPA and NBO analysis)
   Christopher J. Cramer and Donald G. Truhlar   : smd solvation model


 Your calculation uses the libint2 library for the computation of 2-el integrals
 For citations please refer to: http://libint.valeyev.net

 This ORCA versions uses:
   CBLAS   interface :  Fast vector & matrix operations
   LAPACKE interface :  Fast linear algebra routines
   SCALAPACK package :  Parallel linear algebra routines


Your calculation utilizes the atom-pairwise dispersion correction
with the zero-damping scheme (D30)
Cite in your paper:
S.Grimme, J.Antony, S.Ehrlich and H.Krieg, J.Chem.Phys., 132, (2010), 154104 
   

XCFun DFT library Copyright 2009-2010 Ulf Ekstrom and contributors.
See http://admol.org/xcfun for more information. This is free soft-
ware; see the source code for copying conditions. There is ABSOLUTELY
NO WARRANTY; not even for MERCHANTABILITY or FITNESS FOR A PARTICULAR
PURPOSE. For details see the documentation. Scientific users of this 
library should cite U. Ekstrom, L. Visscher, R. Bast, A. J. Thorvald-
sen and K. Ruud; J.Chem.Theor.Comp. 2010, DOI: 10.1021/ct100117s
XCFun Version 0.99 
Your calculation utilizes the basis: 6-31G(d)
   H-He, Li-Ne : W. J. Hehre, R. Ditchfield and J.A. Pople, J. Chem. Phys. 56, 2257 (1972).
                 Note: He and Ne are unpublished basis sets taken from the Gaussian program.
                 Note: Li and B from J. D. Dill and J. A. Pople, J. Chem. Phys. 62, 2921 (1975).
   Na - Ar     : M. M. Francl, W. J. Pietro, W. J. Hehre, J. S. Binkley, M. S. Gordon, 
                 D. J. DeFrees and J. A. Pople, J. Chem. Phys. 77, 3654 (1982).
   K - Zn      : V. A. Rassolov, J. A. Pople, M. A. Ratner, and T. L. Windus, J. Chem. Phys. 109, 1223 (1998).

================================================================================
                                        WARNINGS
                       Please study these warnings very carefully!
================================================================================

Warning: TCutStore was < 0. Adjusted to Thresh (uncritical)

INFO   : the flag for use of LIBINT has been found!

================================================================================
                                       INPUT FILE
================================================================================
NAME = initial7.inp
|  1> ! WB97X-D3 6-31G(d) VerySlowConv
|  2> ! KDIIS NOSOSCF
|  3> %base "Scan_7"
|  4> 
|  5> %scf
|  6> maxiter 999
|  7> end
|  8> 
|  9> * xyz 0 1
| 10> C          1.403194289765   -2.840488720769   -0.000000000000
| 11> H          2.491841333126   -2.923831204128    0.000000000000
| 12> C          0.850958996759   -1.689030031894   -0.000000000000
| 13> H          1.467459226525   -0.787905278131   -0.000000000000
| 14> C         -0.422351125395   -1.591550476699   -0.000000000000
| 15> H         -0.894497939137   -0.607083239617   -0.000000000000
| 16> C         -1.143425956432   -2.645529612564   -0.000000000000
| 17> H         -2.232072999792   -2.562187129205   -0.000000000000
| 18> C         -0.591190663425   -3.796988301439   -0.000000000000
| 19> H         -1.207690893191   -4.698113055202   -0.000000000000
| 20> C          0.682119458729   -3.894467856634   -0.000000000000
| 21> H          1.154266272470   -4.878935093716    0.000000000000
| 22> **                         ****END OF INPUT****
================================================================================

                       ****************************
                       * Single Point Calculation *
                       ****************************

---------------------------------
CARTESIAN COORDINATES (ANGSTROEM)
---------------------------------
  C      1.403194   -2.840489   -0.000000
  H      2.491841   -2.923831    0.000000
  C      0.850959   -1.689030   -0.000000
  H      1.467459   -0.787905   -0.000000
  C     -0.422351   -1.591550   -0.000000
  H     -0.894498   -0.607083   -0.000000
  C     -1.143426   -2.645530   -0.000000
  H     -2.232073   -2.562187   -0.000000
  C     -0.591191   -3.796988   -0.000000
  H     -1.207691   -4.698113   -0.000000
  C      0.682119   -3.894468   -0.000000
  H      1.154266   -4.878935    0.000000

----------------------------
CARTESIAN COORDINATES (A.U.)
----------------------------
  NO LB      ZA    FRAG     MASS         X           Y           Z
   0 C     6.0000    0    12.011    2.651653   -5.367746   -0.000000
   1 H     1.0000    0     1.008    4.708898   -5.525240    0.000000
   2 C     6.0000    0    12.011    1.608079   -3.191804   -0.000000
   3 H     1.0000    0     1.008    2.773096   -1.488925   -0.000000
   4 C     6.0000    0    12.011   -0.798128   -3.007595   -0.000000
   5 H     1.0000    0     1.008   -1.690356   -1.147221   -0.000000
   6 C     6.0000    0    12.011   -2.160762   -4.999326   -0.000000
   7 H     1.0000    0     1.008   -4.218007   -4.841832   -0.000000
   8 C     6.0000    0    12.011   -1.117188   -7.175268   -0.000000
   9 H     1.0000    0     1.008   -2.282205   -8.878147   -0.000000
  10 C     6.0000    0    12.011    1.289019   -7.359478   -0.000000
  11 H     1.0000    0     1.008    2.181247   -9.219851    0.000000

--------------------------------
INTERNAL COORDINATES (ANGSTROEM)
--------------------------------
 C      0   0   0     0.000000000000     0.00000000     0.00000000
 H      1   0   0     1.091832567087     0.00000000     0.00000000
 C      1   2   0     1.277035994413   120.00000007     0.00000000
 H      3   1   2     1.091832567359   119.99999992     0.00000000
 C      3   1   2     1.277035994348   120.00000015   180.00000000
 H      5   3   1     1.091832567116   120.00000007   180.00000000
 C      5   3   1     1.277035994322   119.99999994     0.00000000
 H      7   5   3     1.091832567086   120.00000001   180.00000085
 C      7   5   3     1.277035994414   119.99999991     0.00000000
 H      9   7   5     1.091832567359   119.99999992   180.00000000
 C      1   2   3     1.277035994321   120.00000001   180.00000000
 H     11   1   2     1.091832567115   120.00000000     0.00000000

---------------------------
INTERNAL COORDINATES (A.U.)
---------------------------
 C      0   0   0     0.000000000000     0.00000000     0.00000000
 H      1   0   0     2.063264535890     0.00000000     0.00000000
 C      1   2   0     2.413248292601   120.00000007     0.00000000
 H      3   1   2     2.063264536405   119.99999992     0.00000000
 C      3   1   2     2.413248292478   120.00000015   180.00000000
 H      5   3   1     2.063264535945   120.00000007   180.00000000
 C      5   3   1     2.413248292428   119.99999994     0.00000000
 H      7   5   3     2.063264535888   120.00000001   180.00000085
 C      7   5   3     2.413248292602   119.99999991     0.00000000
 H      9   7   5     2.063264536405   119.99999992   180.00000000
 C      1   2   3     2.413248292427   120.00000001   180.00000000
 H     11   1   2     2.063264535944   120.00000000     0.00000000

---------------------
BASIS SET INFORMATION
---------------------
There are 2 groups of distinct atoms

 Group   1 Type C   : 10s4p1d contracted to 3s2p1d pattern {631/31/1}
 Group   2 Type H   : 4s contracted to 2s pattern {31}

Atom   0C    basis set group =>   1
Atom   1H    basis set group =>   2
Atom   2C    basis set group =>   1
Atom   3H    basis set group =>   2
Atom   4C    basis set group =>   1
Atom   5H    basis set group =>   2
Atom   6C    basis set group =>   1
Atom   7H    basis set group =>   2
Atom   8C    basis set group =>   1
Atom   9H    basis set group =>   2
Atom  10C    basis set group =>   1
Atom  11H    basis set group =>   2
------------------------------------------------------------------------------
                           ORCA GTO INTEGRAL CALCULATION
------------------------------------------------------------------------------

                         BASIS SET STATISTICS AND STARTUP INFO

 # of primitive gaussian shells          ...  114
 # of primitive gaussian functions       ...  186
 # of contracted shells                  ...   48
 # of contracted basis functions         ...   96
 Highest angular momentum                ...    2
 Maximum contraction depth               ...    6
 Integral package used                   ... LIBINT
 Integral threshhold            Thresh   ...  1.000e-10
 Primitive cut-off              TCut     ...  1.000e-11


------------------------------ INTEGRAL EVALUATION ----------------------------


 * One electron integrals 
 Pre-screening matrix                    ... done
 Shell pair data                         ... done (   0.001 sec)

-------------------------------------------------------------------------------
                                 ORCA SCF
-------------------------------------------------------------------------------

------------
SCF SETTINGS
------------
Hamiltonian:
 Density Functional     Method          .... DFT(GTOs)
 Exchange Functional    Exchange        .... WB97X-D3
 Correlation Functional Correlation     .... WB97X-D3
 Gradients option       PostSCFGGA      .... off
 Hybrid DFT is turned on
   Fraction HF Exchange ScalHFX         ....  0.195728
   Scaling of DF-GGA-X  ScalDFX         ....  0.000000
   Scaling of DF-GGA-C  ScalDFC         ....  1.000000
   Scaling of DF-LDA-C  ScalLDAC        ....  1.000000
   Perturbative correction              ....  0.000000
 Long-range corrected/Screened/Range-Separated Hybrid DFT is turned on
   Amount of maximum screened exact exchange              ....  0.804272
   Range separation parameter mu (erf(mu*r12)/r12)        ....  0.250000


General Settings:
 Integral files         IntName         .... Scan_7
 Hartree-Fock type      HFTyp           .... RHF
 Total Charge           Charge          ....    0
 Multiplicity           Mult            ....    1
 Number of Electrons    NEL             ....   42
 Basis Dimension        Dim             ....   96
 Nuclear Repulsion      ENuc            ....    219.1249234220 Eh

Convergence Acceleration:
 DIIS                   CNVDIIS         .... on
   Start iteration      DIISMaxIt       ....     0
   Startup error        DIISStart       ....  0.200000
   # of expansion vecs  DIISMaxEq       ....     5
   Bias factor          DIISBfac        ....   1.050
   Max. coefficient     DIISMaxC        ....  10.000
 Newton-Raphson         CNVNR           .... off
 SOSCF                  CNVSOSCF        .... off
 Level Shifting         CNVShift        .... off
 Zerner damping         CNVZerner       .... off
 Static damping         CNVDamp         .... off
 Fernandez-Rico         CNVRico         .... off

SCF Procedure:
 Maximum # iterations   MaxIter         ....   999
 SCF integral mode      SCFMode         .... Direct
   Integral package                     .... LIBINT
 Reset frequeny         DirectResetFreq ....    20
 Integral Threshold     Thresh          ....  1.000e-10 Eh
 Primitive CutOff       TCut            ....  1.000e-11 Eh

Convergence Tolerance:
 Convergence Check Mode ConvCheckMode   .... All-Criteria
 Convergence forced     ConvForced      .... 0
 Energy Change          TolE            ....  1.000e-06 Eh
 Max Density Change     TolMaxP         ....  1.000e-05
 RMS Density Change     TolRMSP         ....  1.000e-06
 DIIS Error             TolErr          ....  1.000e-06


Diagonalization of the overlap matrix:
Smallest eigenvalue                        ... 2.293e-04
Time for diagonalization                   ...    0.003 sec
Threshold for overlap eigenvalues          ... 1.000e-08
Number of eigenvalues below threshold      ... 0
Time for construction of square roots      ...    0.006 sec
Total time needed                          ...    0.008 sec

-------------------
DFT GRID GENERATION
-------------------

General Integration Accuracy     IntAcc      ...  4.340
Radial Grid Type                 RadialGrid  ... Gauss-Chebyshev
Angular Grid (max. acc.)         AngularGrid ... Lebedev-110
Angular grid pruning method      GridPruning ... 3 (G Style)
Weight generation scheme         WeightScheme... Becke
Basis function cutoff            BFCut       ...    1.0000e-10
Integration weight cutoff        WCut        ...    1.0000e-14
Grids for H and He will be reduced by one unit

# of grid points (after initial pruning)     ...  14700 (   0.0 sec)
# of grid points (after weights+screening)   ...  13708 (   0.0 sec)
nearest neighbour list constructed           ...    0.0 sec
Grid point re-assignment to atoms done       ...    0.0 sec
Grid point division into batches done        ...    0.0 sec
Reduced shell lists constructed in    0.2 sec

Total number of grid points                  ...    13708
Total number of batches                      ...      220
Average number of points per batch           ...       62
Average number of grid points per atom       ...     1142
Average number of shells per batch           ...    38.46 (80.13%)
Average number of basis functions per batch  ...    79.67 (82.99%)
Average number of large shells per batch     ...    32.32 (84.04%)
Average number of large basis fcns per batch ...    67.59 (84.83%)
Maximum spatial batch extension              ...  18.00, 20.31, 25.60 au
Average spatial batch extension              ...   3.56,  3.94,  5.03 au

Time for grid setup =    0.250 sec

------------------------------
INITIAL GUESS: MODEL POTENTIAL
------------------------------
Loading Hartree-Fock densities                     ... done
Calculating cut-offs                               ... done
Setting up the integral package                    ... done
Initializing the effective Hamiltonian             ... done
Starting the Coulomb interaction                   ... done (   0.1 sec)
Reading the grid                                   ... done
Mapping shells                                     ... done
Starting the XC term evaluation                    ... done (   0.2 sec)
  promolecular density results
     # of electrons  =     42.005916076
     EX              =    -32.679180634
     EC              =     -1.400920126
     EX+EC           =    -34.080100760
Transforming the Hamiltonian                       ... done (   0.0 sec)
Diagonalizing the Hamiltonian                      ... done (   0.0 sec)
Back transforming the eigenvectors                 ... done (   0.0 sec)
Now organizing SCF variables                       ... done
                      ------------------
                      INITIAL GUESS DONE (   0.7 sec)
                      ------------------
--------------
SCF ITERATIONS
--------------
ITER       Energy         Delta-E        Max-DP      RMS-DP      [F,P]   Gradient Norm
               ***  Starting incremental Fock matrix formation  ***
                             ****Resetting KDIIS****
                             ****Turning on KDIIS(Cayley)****
  0   -231.8427386619   0.000000000000 0.02347222  0.00142368  0.1153290   0.098449837
  1   -231.9164032287  -0.073664566788 0.01924098  0.00154227  0.0968640   0.081357610
  2   -231.9705336636  -0.054130434935 0.03127722  0.00241167  0.0792052   0.066496559
  3   -232.0366012150  -0.066067551373 0.04715484  0.00343501  0.0489159   0.041174299
  4   -232.0771019440  -0.040500729035 0.00407750  0.00040713  0.0031385   0.002617663
  5   -232.0772713052  -0.000169361192 0.00791270  0.00078731  0.0020067   0.001483983
  6   -232.0773205612  -0.000049255953 0.00353158  0.00035422  0.0010210   0.000971884
  7   -232.0773547630  -0.000034201823 0.00033545  0.00003151  0.0000906   0.000091547
                          ***Energy convergence achieved***
  8   -232.0773550477  -0.000000284771 0.00002512  0.00000160  0.0000140   0.000013914
                           ***RMSP convergence achieved***

            ***Energy convergence in two consecutive cycles with***
                    ***'reasonable' density convergence***
                       *** signaling convergence ***

                    *** KDIIS BlockDiag ( 0.001 sec) ***

               *****************************************************
               *                     SUCCESS                       *
               *           SCF CONVERGED AFTER   9 CYCLES          *
               *****************************************************

Setting up the final grid:

General Integration Accuracy     IntAcc      ...  4.670
Radial Grid Type                 RadialGrid  ... Gauss-Chebyshev
Angular Grid (max. acc.)         AngularGrid ... Lebedev-302
Angular grid pruning method      GridPruning ... 3 (G Style)
Weight generation scheme         WeightScheme... Becke
Basis function cutoff            BFCut       ...    1.0000e-10
Integration weight cutoff        WCut        ...    1.0000e-14
Grids for H and He will be reduced by one unit

# of grid points (after initial pruning)     ...  57636 (   0.0 sec)
# of grid points (after weights+screening)   ...  53156 (   0.1 sec)
nearest neighbour list constructed           ...    0.0 sec
Grid point re-assignment to atoms done       ...    0.0 sec
Grid point division into batches done        ...    0.2 sec
Reduced shell lists constructed in    0.8 sec

Total number of grid points                  ...    53156
Total number of batches                      ...      838
Average number of points per batch           ...       63
Average number of grid points per atom       ...     4430
Average number of shells per batch           ...    35.03 (72.98%)
Average number of basis functions per batch  ...    72.54 (75.56%)
Average number of large shells per batch     ...    28.79 (82.18%)
Average number of large basis fcns per batch ...    59.79 (82.43%)
Maximum spatial batch extension              ...  17.08, 19.73, 23.20 au
Average spatial batch extension              ...   2.46,  2.62,  2.99 au

Final grid set up in    0.9 sec
Final integration                            ... done (   0.8 sec)
Change in XC energy                          ...     0.000745734
Integrated number of electrons               ...    41.999990207
Previous integrated no of electrons          ...    42.004236527

----------------
TOTAL SCF ENERGY
----------------

Total Energy       :         -232.07660932 Eh           -6315.12559 eV

Components:
Nuclear Repulsion  :          219.12492342 Eh            5962.69230 eV
Electronic Energy  :         -451.20153274 Eh          -12277.81790 eV
One Electron Energy:         -745.10229071 Eh          -20275.26410 eV
Two Electron Energy:          293.90075798 Eh            7997.44621 eV

Virial components:
Potential Energy   :         -464.86725727 Eh          -12649.68117 eV
Kinetic Energy     :          232.79064795 Eh            6334.55557 eV
Virial Ratio       :            1.99693270


DFT components:
N(Alpha)           :       20.999995103480 electrons
N(Beta)            :       20.999995103480 electrons
N(Total)           :       41.999990206959 electrons
E(XC)              :      -24.099219331213 Eh       

---------------
SCF CONVERGENCE
---------------

  Last Energy change         ...   -3.0450e-09  Tolerance :   1.0000e-06
  Last MAX-Density change    ...    1.0613e-05  Tolerance :   1.0000e-05
  Last RMS-Density change    ...    9.4021e-07  Tolerance :   1.0000e-06
  Last DIIS Error            ...    4.4566e-06  Tolerance :   1.0000e-06

             **** THE GBW FILE WAS UPDATED (Scan_7.gbw) ****
             **** DENSITY FILE WAS UPDATED (Scan_7.scfp.tmp) ****
             **** ENERGY FILE WAS UPDATED (Scan_7.en.tmp) ****
----------------
ORBITAL ENERGIES
----------------

  NO   OCC          E(Eh)            E(eV) 
   0   2.0000     -10.252643      -278.9886 
   1   2.0000     -10.252103      -278.9739 
   2   2.0000     -10.251969      -278.9703 
   3   2.0000     -10.250849      -278.9398 
   4   2.0000     -10.250722      -278.9363 
   5   2.0000     -10.250213      -278.9225 
   6   2.0000      -1.030049       -28.0291 
   7   2.0000      -0.882913       -24.0253 
   8   2.0000      -0.882837       -24.0232 
   9   2.0000      -0.717702       -19.5297 
  10   2.0000      -0.717563       -19.5259 
  11   2.0000      -0.653375       -17.7792 
  12   2.0000      -0.571754       -15.5582 
  13   2.0000      -0.527134       -14.3440 
  14   2.0000      -0.520603       -14.1663 
  15   2.0000      -0.520411       -14.1611 
  16   2.0000      -0.509585       -13.8665 
  17   2.0000      -0.420509       -11.4426 
  18   2.0000      -0.420148       -11.4328 
  19   2.0000      -0.350821        -9.5463 
  20   2.0000      -0.350618        -9.5408 
  21   0.0000       0.111989         3.0474 
  22   0.0000       0.112222         3.0537 
  23   0.0000       0.170257         4.6329 
  24   0.0000       0.234912         6.3923 
  25   0.0000       0.235471         6.4075 
  26   0.0000       0.298078         8.1111 
  27   0.0000       0.298503         8.1227 
  28   0.0000       0.308260         8.3882 
  29   0.0000       0.328123         8.9287 
  30   0.0000       0.432599        11.7716 
  31   0.0000       0.433183        11.7875 
  32   0.0000       0.474098        12.9009 
  33   0.0000       0.474798        12.9199 
  34   0.0000       0.538266        14.6470 
  35   0.0000       0.609954        16.5977 
  36   0.0000       0.660184        17.9645 
  37   0.0000       0.681345        18.5403 
  38   0.0000       0.681571        18.5465 
  39   0.0000       0.718816        19.5600 
  40   0.0000       0.744587        20.2612 
  41   0.0000       0.744609        20.2618 
  42   0.0000       0.757595        20.6152 
  43   0.0000       0.767463        20.8837 
  44   0.0000       0.780458        21.2374 
  45   0.0000       0.781360        21.2619 
  46   0.0000       0.781379        21.2624 
  47   0.0000       0.781622        21.2690 
  48   0.0000       0.878111        23.8946 
  49   0.0000       0.928932        25.2775 
  50   0.0000       0.929024        25.2800 
  51   0.0000       0.944956        25.7136 
  52   0.0000       0.945274        25.7222 
  53   0.0000       1.034519        28.1507 
  54   0.0000       1.045420        28.4473 
  55   0.0000       1.111486        30.2451 
  56   0.0000       1.111670        30.2501 
  57   0.0000       1.198498        32.6128 
  58   0.0000       1.237126        33.6639 
  59   0.0000       1.237636        33.6778 
  60   0.0000       1.328230        36.1430 
  61   0.0000       1.328982        36.1634 
  62   0.0000       1.372552        37.3490 
  63   0.0000       1.427344        38.8400 
  64   0.0000       1.436648        39.0932 
  65   0.0000       1.592376        43.3308 
  66   0.0000       1.592713        43.3399 
  67   0.0000       1.637635        44.5623 
  68   0.0000       1.638079        44.5744 
  69   0.0000       1.649910        44.8963 
  70   0.0000       1.650306        44.9071 
  71   0.0000       1.801107        49.0106 
  72   0.0000       1.992772        54.2261 
  73   0.0000       2.046166        55.6790 
  74   0.0000       2.134798        58.0908 
  75   0.0000       2.158865        58.7457 
  76   0.0000       2.160163        58.7810 
  77   0.0000       2.343240        63.7628 
  78   0.0000       2.343777        63.7774 
  79   0.0000       2.392929        65.1149 
  80   0.0000       2.394081        65.1463 
  81   0.0000       2.429013        66.0968 
  82   0.0000       2.430489        66.1370 
  83   0.0000       2.535786        69.0023 
  84   0.0000       2.536041        69.0092 
  85   0.0000       2.593430        70.5708 
  86   0.0000       2.717760        73.9540 
  87   0.0000       2.718673        73.9789 
  88   0.0000       2.915472        79.3340 
  89   0.0000       3.008169        81.8564 
  90   0.0000       3.019759        82.1718 
  91   0.0000       3.021023        82.2062 
  92   0.0000       3.100018        84.3558 
  93   0.0000       3.101680        84.4010 
  94   0.0000       3.298497        89.7567 
  95   0.0000       3.910785       106.4179 

                    ********************************
                    * MULLIKEN POPULATION ANALYSIS *
                    ********************************

-----------------------
MULLIKEN ATOMIC CHARGES
-----------------------
   0 C :   -0.156906
   1 H :    0.155486
   2 C :   -0.152882
   3 H :    0.154181
   4 C :   -0.152681
   5 H :    0.152803
   6 C :   -0.156906
   7 H :    0.155486
   8 C :   -0.152882
   9 H :    0.154181
  10 C :   -0.152681
  11 H :    0.152803
Sum of atomic charges:    0.0000000

--------------------------------
MULLIKEN REDUCED ORBITAL CHARGES
--------------------------------
  0 C s       :     3.102573  s :     3.102573
      pz      :     0.987528  p :     3.007653
      px      :     1.049991
      py      :     0.970134
      dz2     :     0.003470  d :     0.046680
      dxz     :     0.003447
      dyz     :     0.009031
      dx2y2   :     0.017589
      dxy     :     0.013143
  1 H s       :     0.844514  s :     0.844514
  2 C s       :     3.103784  s :     3.103784
      pz      :     0.987684  p :     3.002431
      px      :     0.992360
      py      :     1.022387
      dz2     :     0.003439  d :     0.046667
      dxz     :     0.007267
      dyz     :     0.005227
      dx2y2   :     0.013688
      dxy     :     0.017047
  3 H s       :     0.845819  s :     0.845819
  4 C s       :     3.104174  s :     3.104174
      pz      :     0.987326  p :     3.001832
      px      :     0.982428
      py      :     1.032079
      dz2     :     0.003469  d :     0.046675
      dxz     :     0.008015
      dyz     :     0.004475
      dx2y2   :     0.014839
      dxy     :     0.015876
  5 H s       :     0.847197  s :     0.847197
  6 C s       :     3.102573  s :     3.102573
      pz      :     0.987528  p :     3.007653
      px      :     1.049991
      py      :     0.970134
      dz2     :     0.003470  d :     0.046680
      dxz     :     0.003447
      dyz     :     0.009031
      dx2y2   :     0.017589
      dxy     :     0.013143
  7 H s       :     0.844514  s :     0.844514
  8 C s       :     3.103784  s :     3.103784
      pz      :     0.987684  p :     3.002431
      px      :     0.992360
      py      :     1.022387
      dz2     :     0.003439  d :     0.046667
      dxz     :     0.007267
      dyz     :     0.005227
      dx2y2   :     0.013688
      dxy     :     0.017047
  9 H s       :     0.845819  s :     0.845819
 10 C s       :     3.104174  s :     3.104174
      pz      :     0.987326  p :     3.001832
      px      :     0.982428
      py      :     1.032079
      dz2     :     0.003469  d :     0.046675
      dxz     :     0.008015
      dyz     :     0.004475
      dx2y2   :     0.014839
      dxy     :     0.015876
 11 H s       :     0.847197  s :     0.847197


                     *******************************
                     * LOEWDIN POPULATION ANALYSIS *
                     *******************************

----------------------
LOEWDIN ATOMIC CHARGES
----------------------
   0 C :   -0.133686
   1 H :    0.133509
   2 C :   -0.133482
   3 H :    0.133486
   4 C :   -0.133202
   5 H :    0.133375
   6 C :   -0.133686
   7 H :    0.133509
   8 C :   -0.133482
   9 H :    0.133486
  10 C :   -0.133202
  11 H :    0.133375

-------------------------------
LOEWDIN REDUCED ORBITAL CHARGES
-------------------------------
  0 C s       :     2.855826  s :     2.855826
      pz      :     0.973287  p :     3.157927
      px      :     1.070882
      py      :     1.113757
      dz2     :     0.007926  d :     0.119932
      dxz     :     0.005149
      dyz     :     0.021526
      dx2y2   :     0.049100
      dxy     :     0.036231
  1 H s       :     0.866491  s :     0.866491
  2 C s       :     2.855860  s :     2.855860
      pz      :     0.973538  p :     3.157622
      px      :     1.099877
      py      :     1.084206
      dz2     :     0.007906  d :     0.120001
      dxz     :     0.016342
      dyz     :     0.010349
      dx2y2   :     0.037793
      dxy     :     0.047611
  3 H s       :     0.866514  s :     0.866514
  4 C s       :     2.855857  s :     2.855857
      pz      :     0.973135  p :     3.157404
      px      :     1.106233
      py      :     1.078037
      dz2     :     0.007923  d :     0.119941
      dxz     :     0.018522
      dyz     :     0.008151
      dx2y2   :     0.041217
      dxy     :     0.044127
  5 H s       :     0.866625  s :     0.866625
  6 C s       :     2.855826  s :     2.855826
      pz      :     0.973287  p :     3.157927
      px      :     1.070882
      py      :     1.113757
      dz2     :     0.007926  d :     0.119932
      dxz     :     0.005149
      dyz     :     0.021526
      dx2y2   :     0.049100
      dxy     :     0.036231
  7 H s       :     0.866491  s :     0.866491
  8 C s       :     2.855860  s :     2.855860
      pz      :     0.973538  p :     3.157622
      px      :     1.099877
      py      :     1.084206
      dz2     :     0.007906  d :     0.120001
      dxz     :     0.016342
      dyz     :     0.010349
      dx2y2   :     0.037793
      dxy     :     0.047611
  9 H s       :     0.866514  s :     0.866514
 10 C s       :     2.855857  s :     2.855857
      pz      :     0.973135  p :     3.157404
      px      :     1.106233
      py      :     1.078037
      dz2     :     0.007923  d :     0.119941
      dxz     :     0.018522
      dyz     :     0.008151
      dx2y2   :     0.041217
      dxy     :     0.044127
 11 H s       :     0.866625  s :     0.866625


                      *****************************
                      * MAYER POPULATION ANALYSIS *
                      *****************************

  NA   - Mulliken gross atomic population
  ZA   - Total nuclear charge
  QA   - Mulliken gross atomic charge
  VA   - Mayer's total valence
  BVA  - Mayer's bonded valence
  FA   - Mayer's free valence

  ATOM       NA         ZA         QA         VA         BVA        FA
  0 C      6.1569     6.0000    -0.1569     4.0153     4.0153     0.0000
  1 H      0.8445     1.0000     0.1555     0.9312     0.9312     0.0000
  2 C      6.1529     6.0000    -0.1529     4.0138     4.0138     0.0000
  3 H      0.8458     1.0000     0.1542     0.9316     0.9316     0.0000
  4 C      6.1527     6.0000    -0.1527     4.0162     4.0162    -0.0000
  5 H      0.8472     1.0000     0.1528     0.9322     0.9322    -0.0000
  6 C      6.1569     6.0000    -0.1569     4.0153     4.0153    -0.0000
  7 H      0.8445     1.0000     0.1555     0.9312     0.9312     0.0000
  8 C      6.1529     6.0000    -0.1529     4.0138     4.0138     0.0000
  9 H      0.8458     1.0000     0.1542     0.9316     0.9316     0.0000
 10 C      6.1527     6.0000    -0.1527     4.0162     4.0162     0.0000
 11 H      0.8472     1.0000     0.1528     0.9322     0.9322    -0.0000

  Mayer bond orders larger than 0.1
B(  0-C ,  1-H ) :   0.9259 B(  0-C ,  2-C ) :   1.4904 B(  0-C , 10-C ) :   1.4919 
B(  2-C ,  3-H ) :   0.9264 B(  2-C ,  4-C ) :   1.4904 B(  4-C ,  5-H ) :   0.9268 
B(  4-C ,  6-C ) :   1.4919 B(  6-C ,  7-H ) :   0.9259 B(  6-C ,  8-C ) :   1.4904 
B(  8-C ,  9-H ) :   0.9264 B(  8-C , 10-C ) :   1.4904 B( 10-C , 11-H ) :   0.9268 


-------
TIMINGS
-------

Total SCF time: 0 days 0 hours 0 min 46 sec 

Total time                  ....      46.061 sec
Sum of individual times     ....      45.911 sec  ( 99.7%)

Fock matrix formation       ....      44.296 sec  ( 96.2%)
  XC integration            ....       3.367 sec  (  7.6% of F)
    Basis function eval.    ....       1.725 sec  ( 51.2% of XC)
    Density eval.           ....       0.274 sec  (  8.1% of XC)
    XC-Functional eval.     ....       0.569 sec  ( 16.9% of XC)
    XC-Potential eval.      ....       0.508 sec  ( 15.1% of XC)
Diagonalization             ....       0.012 sec  (  0.0%)
Density matrix formation    ....       0.001 sec  (  0.0%)
Population analysis         ....       0.015 sec  (  0.0%)
Initial guess               ....       0.424 sec  (  0.9%)
Orbital Transformation      ....       0.000 sec  (  0.0%)
Orbital Orthonormalization  ....       0.000 sec  (  0.0%)
DIIS solution               ....       0.000 sec  (  0.0%)
Grid generation             ....       1.162 sec  (  2.5%)


-------------------------------------------------------------------------------
                          DFT DISPERSION CORRECTION                            
                                                                               
                              DFTD3 V3.1  Rev 1                                
                              USING zero damping                               
-------------------------------------------------------------------------------
The omegaB97X-D3 functional is recognized. Fit by Chai et al.
Active option DFTDOPT                   ...         3   

molecular C6(AA) [au] = 1554.354276 


            DFT-D V3
 parameters
 s6 scaling factor         :     1.0000 
 rs6 scaling factor        :     1.2810 
 s8 scaling factor         :     1.0000 
 rs8 scaling factor        :     1.0940 
 Damping factor alpha6     :    14.0000 
 Damping factor alpha8     :    16.0000 
 ad hoc parameters k1-k3   :    16.0000     1.3333    -4.0000 

 Edisp/kcal,au: -1.322457265090  -0.002107469574 
 E6   /kcal   :  -0.507137686 
 E8   /kcal   :  -0.815319579 
 % E8         :  61.651865822 

-------------------------   ----------------
Dispersion correction           -0.002107470
-------------------------   ----------------


-------------------------   --------------------
FINAL SINGLE POINT ENERGY      -232.078716786783
-------------------------   --------------------


                            ***************************************
                            *     ORCA property calculations      *
                            ***************************************

                                    ---------------------
                                    Active property flags
                                    ---------------------
   (+) Dipole Moment


------------------------------------------------------------------------------
                       ORCA ELECTRIC PROPERTIES CALCULATION
------------------------------------------------------------------------------

Dipole Moment Calculation                       ... on
Quadrupole Moment Calculation                   ... off
Polarizability Calculation                      ... off
GBWName                                         ... Scan_7.gbw
Electron density file                           ... Scan_7.scfp.tmp

-------------
DIPOLE MOMENT
-------------
                                X             Y             Z
Electronic contribution:      0.00000       0.00000      -0.00000
Nuclear contribution   :      0.00000       0.00000       0.00000
                        -----------------------------------------
Total Dipole Moment    :      0.00000       0.00000      -0.00000
                        -----------------------------------------
Magnitude (a.u.)       :      0.00000
Magnitude (Debye)      :      0.00000


Timings for individual modules:

Sum of individual times         ...       46.409 sec (=   0.773 min)
GTO integral calculation        ...        0.326 sec (=   0.005 min)   0.7 %
SCF iterations                  ...       46.083 sec (=   0.768 min)  99.3 %
                             ****ORCA TERMINATED NORMALLY****
TOTAL RUN TIME: 0 days 0 hours 0 minutes 46 seconds 734 msec
