
                                 *****************
                                 * O   R   C   A *
                                 *****************

           --- An Ab Initio, DFT and Semiempirical electronic structure package ---

                  #######################################################
                  #                        -***-                        #
                  #  Department of molecular theory and spectroscopy    #
                  #              Directorship: Frank Neese              #
                  # Max Planck Institute for Chemical Energy Conversion #
                  #                  D-45470 Muelheim/Ruhr              #
                  #                       Germany                       #
                  #                                                     #
                  #                  All rights reserved                #
                  #                        -***-                        #
                  #######################################################


                         Program Version 4.0.0.2 - RELEASE -


 With contributions from (in alphabetic order):
   Daniel Aravena         : Magnetic Properties
   Michael Atanasov       : Ab Initio Ligand Field Theory
   Ute Becker             : Parallelization
   Martin Brehm           : Molecular dynamics
   Dmytro Bykov           : SCF Hessian
   Vijay G. Chilkuri      : MRCI spin determinant printing
   Dipayan Datta          : RHF DLPNO-CCSD density
   Achintya Kumar Dutta   : EOM-CC, STEOM-CC
   Dmitry Ganyushin       : Spin-Orbit,Spin-Spin,Magnetic field MRCI
   Yang Guo               : DLPNO-NEVPT2, CIM, IAO-localization
   Andreas Hansen         : Spin unrestricted coupled pair/coupled cluster methods
   Lee Huntington         : MR-EOM, pCC
   Robert Izsak           : Overlap fitted RIJCOSX, COSX-SCS-MP3, EOM
   Christian Kollmar      : KDIIS, OOCD, Brueckner-CCSD(T), CCSD density
   Simone Kossmann        : Meta GGA functionals, TD-DFT gradient, OOMP2, MP2 Hessian
   Martin Krupicka        : AUTO-CI
   Dagmar Lenk            : GEPOL surface
   Dimitrios Liakos       : Extrapolation schemes; parallel MDCI
   Dimitrios Manganas     : ROCIS; embedding schemes
   Dimitrios Pantazis     : SARC Basis sets
   Taras Petrenko         : DFT Hessian,TD-DFT gradient, ASA, ECA, R-Raman, ABS, FL, XAS/XES, NRVS
   Peter Pinski           : DLPNO-MP2
   Christoph Reimann      : Effective Core Potentials
   Marius Retegan         : Local ZFS, SOC
   Christoph Riplinger    : Optimizer, TS searches, QM/MM, DLPNO-CCSD(T), (RO)-DLPNO pert. Triples
   Tobias Risthaus        : Range-separated hybrids, TD-DFT gradient, RPA, STAB
   Michael Roemelt        : Restricted open shell CIS
   Masaaki Saitow         : Open-shell DLPNO
   Barbara Sandhoefer     : DKH picture change effects
   Kantharuban Sivalingam : CASSCF convergence, NEVPT2, FIC-MRCI
   Georgi Stoychev        : AutoAux
   Boris Wezisla          : Elementary symmetry handling
   Frank Wennmohs         : Technical directorship


 We gratefully acknowledge several colleagues who have allowed us to
 interface, adapt or use parts of their codes:
   Stefan Grimme, W. Hujo, H. Kruse,             : VdW corrections, initial TS optimization,
                  C. Bannwarth                     DFT functionals, gCP, sTDA/sTD-DF
   Ed Valeev                                     : LibInt (2-el integral package), F12 methods
   Garnet Chan, S. Sharma, J. Yang, R. Olivares  : DMRG
   Ulf Ekstrom                                   : XCFun DFT Library
   Mihaly Kallay                                 : mrcc  (arbitrary order and MRCC methods)
   Jiri Pittner, Ondrej Demel                    : Mk-CCSD
   Frank Weinhold                                : gennbo (NPA and NBO analysis)
   Christopher J. Cramer and Donald G. Truhlar   : smd solvation model


 Your calculation uses the libint2 library for the computation of 2-el integrals
 For citations please refer to: http://libint.valeyev.net

 This ORCA versions uses:
   CBLAS   interface :  Fast vector & matrix operations
   LAPACKE interface :  Fast linear algebra routines
   SCALAPACK package :  Parallel linear algebra routines


Your calculation utilizes the atom-pairwise dispersion correction
with the zero-damping scheme (D30)
Cite in your paper:
S.Grimme, J.Antony, S.Ehrlich and H.Krieg, J.Chem.Phys., 132, (2010), 154104 
   

XCFun DFT library Copyright 2009-2010 Ulf Ekstrom and contributors.
See http://admol.org/xcfun for more information. This is free soft-
ware; see the source code for copying conditions. There is ABSOLUTELY
NO WARRANTY; not even for MERCHANTABILITY or FITNESS FOR A PARTICULAR
PURPOSE. For details see the documentation. Scientific users of this 
library should cite U. Ekstrom, L. Visscher, R. Bast, A. J. Thorvald-
sen and K. Ruud; J.Chem.Theor.Comp. 2010, DOI: 10.1021/ct100117s
XCFun Version 0.99 
Your calculation utilizes the basis: 6-31G(d)
   H-He, Li-Ne : W. J. Hehre, R. Ditchfield and J.A. Pople, J. Chem. Phys. 56, 2257 (1972).
                 Note: He and Ne are unpublished basis sets taken from the Gaussian program.
                 Note: Li and B from J. D. Dill and J. A. Pople, J. Chem. Phys. 62, 2921 (1975).
   Na - Ar     : M. M. Francl, W. J. Pietro, W. J. Hehre, J. S. Binkley, M. S. Gordon, 
                 D. J. DeFrees and J. A. Pople, J. Chem. Phys. 77, 3654 (1982).
   K - Zn      : V. A. Rassolov, J. A. Pople, M. A. Ratner, and T. L. Windus, J. Chem. Phys. 109, 1223 (1998).

================================================================================
                                        WARNINGS
                       Please study these warnings very carefully!
================================================================================

Warning: TCutStore was < 0. Adjusted to Thresh (uncritical)

INFO   : the flag for use of LIBINT has been found!

================================================================================
                                       INPUT FILE
================================================================================
NAME = initial8.inp
|  1> ! WB97X-D3 6-31G(d) VerySlowConv
|  2> ! KDIIS NOSOSCF
|  3> %base "Scan_8"
|  4> 
|  5> %scf
|  6> maxiter 999
|  7> end
|  8> 
|  9> * xyz 0 1
| 10> C          1.439495263127   -2.843267778527    0.000000000000
| 11> H          2.523748066458   -2.926273858075    0.000000000000
| 12> C          0.871516219183   -1.658981994185   -0.000000000000
| 13> H          1.485527991608   -0.761494560127   -0.000000000000
| 14> C         -0.438094876877   -1.558723382202   -0.000000000000
| 15> H         -0.908335904559   -0.578229870411   -0.000000000000
| 16> C         -1.179726929812   -2.642750555053   -0.000000000000
| 17> H         -2.263979733422   -2.559744479139   -0.000000000000
| 18> C         -0.611747886054   -3.827036339008   -0.000000000000
| 19> H         -1.225759661487   -4.724523771009   -0.000000000000
| 20> C          0.697863210434   -3.927294951025   -0.000000000000
| 21> H          1.168104241401   -4.907788461240    0.000000000000
| 22> **                         ****END OF INPUT****
================================================================================

                       ****************************
                       * Single Point Calculation *
                       ****************************

---------------------------------
CARTESIAN COORDINATES (ANGSTROEM)
---------------------------------
  C      1.439495   -2.843268    0.000000
  H      2.523748   -2.926274    0.000000
  C      0.871516   -1.658982   -0.000000
  H      1.485528   -0.761495   -0.000000
  C     -0.438095   -1.558723   -0.000000
  H     -0.908336   -0.578230   -0.000000
  C     -1.179727   -2.642751   -0.000000
  H     -2.263980   -2.559744   -0.000000
  C     -0.611748   -3.827036   -0.000000
  H     -1.225760   -4.724524   -0.000000
  C      0.697863   -3.927295   -0.000000
  H      1.168104   -4.907788    0.000000

----------------------------
CARTESIAN COORDINATES (A.U.)
----------------------------
  NO LB      ZA    FRAG     MASS         X           Y           Z
   0 C     6.0000    0    12.011    2.720252   -5.372997    0.000000
   1 H     1.0000    0     1.008    4.769193   -5.529856    0.000000
   2 C     6.0000    0    12.011    1.646927   -3.135022   -0.000000
   3 H     1.0000    0     1.008    2.807241   -1.439016   -0.000000
   4 C     6.0000    0    12.011   -0.827879   -2.945560   -0.000000
   5 H     1.0000    0     1.008   -1.716506   -1.092696   -0.000000
   6 C     6.0000    0    12.011   -2.229361   -4.994075   -0.000000
   7 H     1.0000    0     1.008   -4.278302   -4.837216   -0.000000
   8 C     6.0000    0    12.011   -1.156036   -7.232051   -0.000000
   9 H     1.0000    0     1.008   -2.316350   -8.928056   -0.000000
  10 C     6.0000    0    12.011    1.318770   -7.421512   -0.000000
  11 H     1.0000    0     1.008    2.207397   -9.274376    0.000000

--------------------------------
INTERNAL COORDINATES (ANGSTROEM)
--------------------------------
 C      0   0   0     0.000000000000     0.00000000     0.00000000
 H      1   0   0     1.087425469066     0.00000000     0.00000000
 C      1   2   0     1.313443189999   120.00000010     0.00000000
 H      3   1   2     1.087425469156   120.00000008     0.00000000
 C      3   1   2     1.313443189559   120.00000003   180.00000000
 H      5   3   1     1.087425469069   119.99999991   180.00000000
 C      5   3   1     1.313443190024   119.99999999     0.00000000
 H      7   5   3     1.087425469067   120.00000011   180.00000000
 C      7   5   3     1.313443189569   119.99999998     0.00000000
 H      9   7   5     1.087425469156   119.99999989   180.00000000
 C      1   2   3     1.313443189596   119.99999992   180.00000000
 H     11   1   2     1.087425469068   119.99999992     0.00000000

---------------------------
INTERNAL COORDINATES (A.U.)
---------------------------
 C      0   0   0     0.000000000000     0.00000000     0.00000000
 H      1   0   0     2.054936327585     0.00000000     0.00000000
 C      1   2   0     2.482047921562   120.00000010     0.00000000
 H      3   1   2     2.054936327755   120.00000008     0.00000000
 C      3   1   2     2.482047920731   120.00000003   180.00000000
 H      5   3   1     2.054936327591   119.99999991   180.00000000
 C      5   3   1     2.482047921609   119.99999999     0.00000000
 H      7   5   3     2.054936327587   120.00000011   180.00000000
 C      7   5   3     2.482047920750   119.99999998     0.00000000
 H      9   7   5     2.054936327757   119.99999989   180.00000000
 C      1   2   3     2.482047920800   119.99999992   180.00000000
 H     11   1   2     2.054936327590   119.99999992     0.00000000

---------------------
BASIS SET INFORMATION
---------------------
There are 2 groups of distinct atoms

 Group   1 Type C   : 10s4p1d contracted to 3s2p1d pattern {631/31/1}
 Group   2 Type H   : 4s contracted to 2s pattern {31}

Atom   0C    basis set group =>   1
Atom   1H    basis set group =>   2
Atom   2C    basis set group =>   1
Atom   3H    basis set group =>   2
Atom   4C    basis set group =>   1
Atom   5H    basis set group =>   2
Atom   6C    basis set group =>   1
Atom   7H    basis set group =>   2
Atom   8C    basis set group =>   1
Atom   9H    basis set group =>   2
Atom  10C    basis set group =>   1
Atom  11H    basis set group =>   2
------------------------------------------------------------------------------
                           ORCA GTO INTEGRAL CALCULATION
------------------------------------------------------------------------------

                         BASIS SET STATISTICS AND STARTUP INFO

 # of primitive gaussian shells          ...  114
 # of primitive gaussian functions       ...  186
 # of contracted shells                  ...   48
 # of contracted basis functions         ...   96
 Highest angular momentum                ...    2
 Maximum contraction depth               ...    6
 Integral package used                   ... LIBINT
 Integral threshhold            Thresh   ...  1.000e-10
 Primitive cut-off              TCut     ...  1.000e-11


------------------------------ INTEGRAL EVALUATION ----------------------------


 * One electron integrals 
 Pre-screening matrix                    ... done
 Shell pair data                         ... done (   0.001 sec)

-------------------------------------------------------------------------------
                                 ORCA SCF
-------------------------------------------------------------------------------

------------
SCF SETTINGS
------------
Hamiltonian:
 Density Functional     Method          .... DFT(GTOs)
 Exchange Functional    Exchange        .... WB97X-D3
 Correlation Functional Correlation     .... WB97X-D3
 Gradients option       PostSCFGGA      .... off
 Hybrid DFT is turned on
   Fraction HF Exchange ScalHFX         ....  0.195728
   Scaling of DF-GGA-X  ScalDFX         ....  0.000000
   Scaling of DF-GGA-C  ScalDFC         ....  1.000000
   Scaling of DF-LDA-C  ScalLDAC        ....  1.000000
   Perturbative correction              ....  0.000000
 Long-range corrected/Screened/Range-Separated Hybrid DFT is turned on
   Amount of maximum screened exact exchange              ....  0.804272
   Range separation parameter mu (erf(mu*r12)/r12)        ....  0.250000


General Settings:
 Integral files         IntName         .... Scan_8
 Hartree-Fock type      HFTyp           .... RHF
 Total Charge           Charge          ....    0
 Multiplicity           Mult            ....    1
 Number of Electrons    NEL             ....   42
 Basis Dimension        Dim             ....   96
 Nuclear Repulsion      ENuc            ....    214.0659519543 Eh

Convergence Acceleration:
 DIIS                   CNVDIIS         .... on
   Start iteration      DIISMaxIt       ....     0
   Startup error        DIISStart       ....  0.200000
   # of expansion vecs  DIISMaxEq       ....     5
   Bias factor          DIISBfac        ....   1.050
   Max. coefficient     DIISMaxC        ....  10.000
 Newton-Raphson         CNVNR           .... off
 SOSCF                  CNVSOSCF        .... off
 Level Shifting         CNVShift        .... off
 Zerner damping         CNVZerner       .... off
 Static damping         CNVDamp         .... off
 Fernandez-Rico         CNVRico         .... off

SCF Procedure:
 Maximum # iterations   MaxIter         ....   999
 SCF integral mode      SCFMode         .... Direct
   Integral package                     .... LIBINT
 Reset frequeny         DirectResetFreq ....    20
 Integral Threshold     Thresh          ....  1.000e-10 Eh
 Primitive CutOff       TCut            ....  1.000e-11 Eh

Convergence Tolerance:
 Convergence Check Mode ConvCheckMode   .... All-Criteria
 Convergence forced     ConvForced      .... 0
 Energy Change          TolE            ....  1.000e-06 Eh
 Max Density Change     TolMaxP         ....  1.000e-05
 RMS Density Change     TolRMSP         ....  1.000e-06
 DIIS Error             TolErr          ....  1.000e-06


Diagonalization of the overlap matrix:
Smallest eigenvalue                        ... 2.986e-04
Time for diagonalization                   ...    0.003 sec
Threshold for overlap eigenvalues          ... 1.000e-08
Number of eigenvalues below threshold      ... 0
Time for construction of square roots      ...    0.006 sec
Total time needed                          ...    0.009 sec

-------------------
DFT GRID GENERATION
-------------------

General Integration Accuracy     IntAcc      ...  4.340
Radial Grid Type                 RadialGrid  ... Gauss-Chebyshev
Angular Grid (max. acc.)         AngularGrid ... Lebedev-110
Angular grid pruning method      GridPruning ... 3 (G Style)
Weight generation scheme         WeightScheme... Becke
Basis function cutoff            BFCut       ...    1.0000e-10
Integration weight cutoff        WCut        ...    1.0000e-14
Grids for H and He will be reduced by one unit

# of grid points (after initial pruning)     ...  14700 (   0.0 sec)
# of grid points (after weights+screening)   ...  13720 (   0.0 sec)
nearest neighbour list constructed           ...    0.0 sec
Grid point re-assignment to atoms done       ...    0.0 sec
Grid point division into batches done        ...    0.0 sec
Reduced shell lists constructed in    0.2 sec

Total number of grid points                  ...    13720
Total number of batches                      ...      220
Average number of points per batch           ...       62
Average number of grid points per atom       ...     1143
Average number of shells per batch           ...    38.14 (79.46%)
Average number of basis functions per batch  ...    78.76 (82.04%)
Average number of large shells per batch     ...    32.00 (83.90%)
Average number of large basis fcns per batch ...    67.10 (85.21%)
Maximum spatial batch extension              ...  18.01, 20.70, 25.60 au
Average spatial batch extension              ...   3.59,  4.02,  5.23 au

Time for grid setup =    0.246 sec

------------------------------
INITIAL GUESS: MODEL POTENTIAL
------------------------------
Loading Hartree-Fock densities                     ... done
Calculating cut-offs                               ... done
Setting up the integral package                    ... done
Initializing the effective Hamiltonian             ... done
Starting the Coulomb interaction                   ... done (   0.1 sec)
Reading the grid                                   ... done
Mapping shells                                     ... done
Starting the XC term evaluation                    ... done (   0.2 sec)
  promolecular density results
     # of electrons  =     42.005219393
     EX              =    -32.596496395
     EC              =     -1.390887067
     EX+EC           =    -33.987383462
Transforming the Hamiltonian                       ... done (   0.0 sec)
Diagonalizing the Hamiltonian                      ... done (   0.0 sec)
Back transforming the eigenvectors                 ... done (   0.0 sec)
Now organizing SCF variables                       ... done
                      ------------------
                      INITIAL GUESS DONE (   0.7 sec)
                      ------------------
--------------
SCF ITERATIONS
--------------
ITER       Energy         Delta-E        Max-DP      RMS-DP      [F,P]   Gradient Norm
               ***  Starting incremental Fock matrix formation  ***
                             ****Resetting KDIIS****
                             ****Turning on KDIIS(Cayley)****
  0   -231.9362194092   0.000000000000 0.02060437  0.00124971  0.1008689   0.088838547
  1   -231.9955906830  -0.059371273851 0.01747965  0.00137464  0.0858253   0.073845313
  2   -232.0412737439  -0.045683060845 0.02841019  0.00216689  0.0696645   0.060227743
  3   -232.0967289853  -0.055455241452 0.04279808  0.00313204  0.0430499   0.037124204
  4   -232.1302859526  -0.033556967231 0.00293280  0.00030593  0.0023219   0.001973627
  5   -232.1303904296  -0.000104476989 0.00474882  0.00048856  0.0013974   0.001033999
  6   -232.1304186592  -0.000028229697 0.00151097  0.00016081  0.0006761   0.000605250
  7   -232.1304316915  -0.000013032210 0.00022943  0.00002372  0.0001069   0.000101699
                          ***Energy convergence achieved***
  8   -232.1304319863  -0.000000294805 0.00002385  0.00000155  0.0000058   0.000005127
                           ***RMSP convergence achieved***
                           ***MAXP convergence achieved***
                    *** KDIIS BlockDiag ( 0.001 sec) ***

               *****************************************************
               *                     SUCCESS                       *
               *           SCF CONVERGED AFTER   9 CYCLES          *
               *****************************************************

Setting up the final grid:

General Integration Accuracy     IntAcc      ...  4.670
Radial Grid Type                 RadialGrid  ... Gauss-Chebyshev
Angular Grid (max. acc.)         AngularGrid ... Lebedev-302
Angular grid pruning method      GridPruning ... 3 (G Style)
Weight generation scheme         WeightScheme... Becke
Basis function cutoff            BFCut       ...    1.0000e-10
Integration weight cutoff        WCut        ...    1.0000e-14
Grids for H and He will be reduced by one unit

# of grid points (after initial pruning)     ...  57636 (   0.0 sec)
# of grid points (after weights+screening)   ...  53238 (   0.1 sec)
nearest neighbour list constructed           ...    0.0 sec
Grid point re-assignment to atoms done       ...    0.0 sec
Grid point division into batches done        ...    0.2 sec
Reduced shell lists constructed in    0.8 sec

Total number of grid points                  ...    53238
Total number of batches                      ...      838
Average number of points per batch           ...       63
Average number of grid points per atom       ...     4436
Average number of shells per batch           ...    34.71 (72.31%)
Average number of basis functions per batch  ...    71.70 (74.69%)
Average number of large shells per batch     ...    28.48 (82.05%)
Average number of large basis fcns per batch ...    59.08 (82.40%)
Maximum spatial batch extension              ...  15.20, 18.91, 23.09 au
Average spatial batch extension              ...   2.46,  2.60,  2.96 au

Final grid set up in    0.9 sec
Final integration                            ... done (   0.9 sec)
Change in XC energy                          ...     0.000901120
Integrated number of electrons               ...    41.999970718
Previous integrated no of electrons          ...    42.003631037

----------------
TOTAL SCF ENERGY
----------------

Total Energy       :         -232.12953087 Eh           -6316.56566 eV

Components:
Nuclear Repulsion  :          214.06595195 Eh            5825.03069 eV
Electronic Energy  :         -446.19548282 Eh          -12141.59635 eV
One Electron Energy:         -735.20099286 Eh          -20005.83609 eV
Two Electron Energy:          289.00551004 Eh            7864.23974 eV

Virial components:
Potential Energy   :         -464.17918203 Eh          -12630.95769 eV
Kinetic Energy     :          232.04965116 Eh            6314.39203 eV
Virial Ratio       :            2.00034424


DFT components:
N(Alpha)           :       20.999985359220 electrons
N(Beta)            :       20.999985359220 electrons
N(Total)           :       41.999970718441 electrons
E(XC)              :      -23.987476674292 Eh       

---------------
SCF CONVERGENCE
---------------

  Last Energy change         ...    1.1147e-10  Tolerance :   1.0000e-06
  Last MAX-Density change    ...    3.2821e-06  Tolerance :   1.0000e-05
  Last RMS-Density change    ...    2.0912e-07  Tolerance :   1.0000e-06
  Last DIIS Error            ...    1.8427e-06  Tolerance :   1.0000e-06

             **** THE GBW FILE WAS UPDATED (Scan_8.gbw) ****
             **** DENSITY FILE WAS UPDATED (Scan_8.scfp.tmp) ****
             **** ENERGY FILE WAS UPDATED (Scan_8.en.tmp) ****
----------------
ORBITAL ENERGIES
----------------

  NO   OCC          E(Eh)            E(eV) 
   0   2.0000     -10.262045      -279.2444 
   1   2.0000     -10.261671      -279.2343 
   2   2.0000     -10.261541      -279.2307 
   3   2.0000     -10.260737      -279.2089 
   4   2.0000     -10.260618      -279.2056 
   5   2.0000     -10.260261      -279.1959 
   6   2.0000      -1.008840       -27.4519 
   7   2.0000      -0.874679       -23.8012 
   8   2.0000      -0.874608       -23.7993 
   9   2.0000      -0.713949       -19.4275 
  10   2.0000      -0.713836       -19.4245 
  11   2.0000      -0.644234       -17.5305 
  12   2.0000      -0.560762       -15.2591 
  13   2.0000      -0.538361       -14.6495 
  14   2.0000      -0.518970       -14.1219 
  15   2.0000      -0.518771       -14.1165 
  16   2.0000      -0.494033       -13.4433 
  17   2.0000      -0.424676       -11.5560 
  18   2.0000      -0.424350       -11.5471 
  19   2.0000      -0.344249        -9.3675 
  20   2.0000      -0.344055        -9.3622 
  21   0.0000       0.102407         2.7866 
  22   0.0000       0.102616         2.7923 
  23   0.0000       0.175030         4.7628 
  24   0.0000       0.237417         6.4605 
  25   0.0000       0.237960         6.4752 
  26   0.0000       0.292694         7.9646 
  27   0.0000       0.293139         7.9767 
  28   0.0000       0.302885         8.2419 
  29   0.0000       0.306808         8.3487 
  30   0.0000       0.421807        11.4780 
  31   0.0000       0.422355        11.4929 
  32   0.0000       0.453898        12.3512 
  33   0.0000       0.454557        12.3691 
  34   0.0000       0.547234        14.8910 
  35   0.0000       0.616529        16.7766 
  36   0.0000       0.662147        18.0179 
  37   0.0000       0.689384        18.7591 
  38   0.0000       0.689585        18.7646 
  39   0.0000       0.705440        19.1960 
  40   0.0000       0.732318        19.9274 
  41   0.0000       0.737646        20.0724 
  42   0.0000       0.742053        20.1923 
  43   0.0000       0.742156        20.1951 
  44   0.0000       0.756659        20.5897 
  45   0.0000       0.756764        20.5926 
  46   0.0000       0.777846        21.1663 
  47   0.0000       0.778730        21.1903 
  48   0.0000       0.868128        23.6230 
  49   0.0000       0.944186        25.6926 
  50   0.0000       0.944266        25.6948 
  51   0.0000       0.947413        25.7804 
  52   0.0000       0.947775        25.7903 
  53   0.0000       1.010297        27.4916 
  54   0.0000       1.042778        28.3754 
  55   0.0000       1.088958        29.6321 
  56   0.0000       1.089128        29.6367 
  57   0.0000       1.151968        31.3466 
  58   0.0000       1.219073        33.1727 
  59   0.0000       1.219449        33.1829 
  60   0.0000       1.301093        35.4045 
  61   0.0000       1.301881        35.4260 
  62   0.0000       1.363891        37.1134 
  63   0.0000       1.384710        37.6799 
  64   0.0000       1.452956        39.5369 
  65   0.0000       1.577478        42.9254 
  66   0.0000       1.577791        42.9339 
  67   0.0000       1.623643        44.1816 
  68   0.0000       1.624143        44.1952 
  69   0.0000       1.626049        44.2470 
  70   0.0000       1.626520        44.2599 
  71   0.0000       1.827522        49.7294 
  72   0.0000       1.961849        53.3846 
  73   0.0000       2.014475        54.8166 
  74   0.0000       2.097221        57.0683 
  75   0.0000       2.128769        57.9268 
  76   0.0000       2.130056        57.9618 
  77   0.0000       2.312321        62.9215 
  78   0.0000       2.312815        62.9349 
  79   0.0000       2.318364        63.0859 
  80   0.0000       2.319430        63.1149 
  81   0.0000       2.375350        64.6366 
  82   0.0000       2.376809        64.6763 
  83   0.0000       2.493664        67.8560 
  84   0.0000       2.493935        67.8634 
  85   0.0000       2.537013        69.0356 
  86   0.0000       2.693049        73.2816 
  87   0.0000       2.693901        73.3048 
  88   0.0000       2.896290        78.8121 
  89   0.0000       2.926433        79.6323 
  90   0.0000       2.952302        80.3362 
  91   0.0000       2.953718        80.3748 
  92   0.0000       3.001499        81.6750 
  93   0.0000       3.003019        81.7163 
  94   0.0000       3.238177        88.1153 
  95   0.0000       3.781286       102.8940 

                    ********************************
                    * MULLIKEN POPULATION ANALYSIS *
                    ********************************

-----------------------
MULLIKEN ATOMIC CHARGES
-----------------------
   0 C :   -0.160968
   1 H :    0.159633
   2 C :   -0.157284
   3 H :    0.158440
   4 C :   -0.156903
   5 H :    0.157080
   6 C :   -0.160968
   7 H :    0.159633
   8 C :   -0.157284
   9 H :    0.158440
  10 C :   -0.156903
  11 H :    0.157080
Sum of atomic charges:   -0.0000000

--------------------------------
MULLIKEN REDUCED ORBITAL CHARGES
--------------------------------
  0 C s       :     3.126949  s :     3.126949
      pz      :     0.988842  p :     2.991059
      px      :     1.043264
      py      :     0.958954
      dz2     :     0.003454  d :     0.042960
      dxz     :     0.002969
      dyz     :     0.008149
      dx2y2   :     0.016481
      dxy     :     0.011908
  1 H s       :     0.840367  s :     0.840367
  2 C s       :     3.128107  s :     3.128107
      pz      :     0.989070  p :     2.986223
      px      :     0.982681
      py      :     1.014473
      dz2     :     0.003425  d :     0.042953
      dxz     :     0.006514
      dyz     :     0.004619
      dx2y2   :     0.012469
      dxy     :     0.015927
  3 H s       :     0.841560  s :     0.841560
  4 C s       :     3.128578  s :     3.128578
      pz      :     0.988708  p :     2.985375
      px      :     0.972031
      py      :     1.024636
      dz2     :     0.003452  d :     0.042950
      dxz     :     0.007209
      dyz     :     0.003921
      dx2y2   :     0.013650
      dxy     :     0.014718
  5 H s       :     0.842920  s :     0.842920
  6 C s       :     3.126949  s :     3.126949
      pz      :     0.988842  p :     2.991059
      px      :     1.043264
      py      :     0.958954
      dz2     :     0.003454  d :     0.042960
      dxz     :     0.002969
      dyz     :     0.008149
      dx2y2   :     0.016481
      dxy     :     0.011908
  7 H s       :     0.840367  s :     0.840367
  8 C s       :     3.128107  s :     3.128107
      pz      :     0.989070  p :     2.986223
      px      :     0.982681
      py      :     1.014473
      dz2     :     0.003425  d :     0.042953
      dxz     :     0.006514
      dyz     :     0.004619
      dx2y2   :     0.012469
      dxy     :     0.015927
  9 H s       :     0.841560  s :     0.841560
 10 C s       :     3.128578  s :     3.128578
      pz      :     0.988708  p :     2.985375
      px      :     0.972031
      py      :     1.024636
      dz2     :     0.003452  d :     0.042950
      dxz     :     0.007209
      dyz     :     0.003921
      dx2y2   :     0.013650
      dxy     :     0.014718
 11 H s       :     0.842920  s :     0.842920


                     *******************************
                     * LOEWDIN POPULATION ANALYSIS *
                     *******************************

----------------------
LOEWDIN ATOMIC CHARGES
----------------------
   0 C :   -0.135411
   1 H :    0.135220
   2 C :   -0.135222
   3 H :    0.135219
   4 C :   -0.134944
   5 H :    0.135139
   6 C :   -0.135411
   7 H :    0.135220
   8 C :   -0.135222
   9 H :    0.135219
  10 C :   -0.134944
  11 H :    0.135139

-------------------------------
LOEWDIN REDUCED ORBITAL CHARGES
-------------------------------
  0 C s       :     2.874030  s :     2.874030
      pz      :     0.976736  p :     3.153926
      px      :     1.075739
      py      :     1.101451
      dz2     :     0.007242  d :     0.107456
      dxz     :     0.004490
      dyz     :     0.018709
      dx2y2   :     0.044140
      dxy     :     0.032875
  1 H s       :     0.864780  s :     0.864780
  2 C s       :     2.874071  s :     2.874071
      pz      :     0.977025  p :     3.153627
      px      :     1.092971
      py      :     1.083631
      dz2     :     0.007223  d :     0.107524
      dxz     :     0.014210
      dyz     :     0.009003
      dx2y2   :     0.034251
      dxy     :     0.042837
  3 H s       :     0.864781  s :     0.864781
  4 C s       :     2.874071  s :     2.874071
      pz      :     0.976628  p :     3.153406
      px      :     1.097005
      py      :     1.079773
      dz2     :     0.007238  d :     0.107468
      dxz     :     0.016105
      dyz     :     0.007095
      dx2y2   :     0.037238
      dxy     :     0.039791
  5 H s       :     0.864861  s :     0.864861
  6 C s       :     2.874030  s :     2.874030
      pz      :     0.976736  p :     3.153926
      px      :     1.075739
      py      :     1.101451
      dz2     :     0.007242  d :     0.107456
      dxz     :     0.004490
      dyz     :     0.018709
      dx2y2   :     0.044140
      dxy     :     0.032875
  7 H s       :     0.864780  s :     0.864780
  8 C s       :     2.874071  s :     2.874071
      pz      :     0.977025  p :     3.153627
      px      :     1.092971
      py      :     1.083631
      dz2     :     0.007223  d :     0.107524
      dxz     :     0.014210
      dyz     :     0.009003
      dx2y2   :     0.034251
      dxy     :     0.042837
  9 H s       :     0.864781  s :     0.864781
 10 C s       :     2.874071  s :     2.874071
      pz      :     0.976628  p :     3.153406
      px      :     1.097005
      py      :     1.079773
      dz2     :     0.007238  d :     0.107468
      dxz     :     0.016105
      dyz     :     0.007095
      dx2y2   :     0.037238
      dxy     :     0.039791
 11 H s       :     0.864861  s :     0.864861


                      *****************************
                      * MAYER POPULATION ANALYSIS *
                      *****************************

  NA   - Mulliken gross atomic population
  ZA   - Total nuclear charge
  QA   - Mulliken gross atomic charge
  VA   - Mayer's total valence
  BVA  - Mayer's bonded valence
  FA   - Mayer's free valence

  ATOM       NA         ZA         QA         VA         BVA        FA
  0 C      6.1610     6.0000    -0.1610     3.9911     3.9911    -0.0000
  1 H      0.8404     1.0000     0.1596     0.9319     0.9319     0.0000
  2 C      6.1573     6.0000    -0.1573     3.9896     3.9896     0.0000
  3 H      0.8416     1.0000     0.1584     0.9323     0.9323     0.0000
  4 C      6.1569     6.0000    -0.1569     3.9918     3.9918    -0.0000
  5 H      0.8429     1.0000     0.1571     0.9329     0.9329    -0.0000
  6 C      6.1610     6.0000    -0.1610     3.9911     3.9911    -0.0000
  7 H      0.8404     1.0000     0.1596     0.9319     0.9319     0.0000
  8 C      6.1573     6.0000    -0.1573     3.9896     3.9896    -0.0000
  9 H      0.8416     1.0000     0.1584     0.9323     0.9323     0.0000
 10 C      6.1569     6.0000    -0.1569     3.9918     3.9918    -0.0000
 11 H      0.8429     1.0000     0.1571     0.9329     0.9329    -0.0000

  Mayer bond orders larger than 0.1
B(  0-C ,  1-H ) :   0.9292 B(  0-C ,  2-C ) :   1.4792 B(  0-C , 10-C ) :   1.4805 
B(  2-C ,  3-H ) :   0.9297 B(  2-C ,  4-C ) :   1.4791 B(  4-C ,  5-H ) :   0.9302 
B(  4-C ,  6-C ) :   1.4805 B(  6-C ,  7-H ) :   0.9292 B(  6-C ,  8-C ) :   1.4792 
B(  8-C ,  9-H ) :   0.9297 B(  8-C , 10-C ) :   1.4791 B( 10-C , 11-H ) :   0.9302 


-------
TIMINGS
-------

Total SCF time: 0 days 0 hours 0 min 44 sec 

Total time                  ....      44.870 sec
Sum of individual times     ....      44.722 sec  ( 99.7%)

Fock matrix formation       ....      43.129 sec  ( 96.1%)
  XC integration            ....       3.332 sec  (  7.7% of F)
    Basis function eval.    ....       1.724 sec  ( 51.7% of XC)
    Density eval.           ....       0.270 sec  (  8.1% of XC)
    XC-Functional eval.     ....       0.558 sec  ( 16.7% of XC)
    XC-Potential eval.      ....       0.490 sec  ( 14.7% of XC)
Diagonalization             ....       0.012 sec  (  0.0%)
Density matrix formation    ....       0.001 sec  (  0.0%)
Population analysis         ....       0.015 sec  (  0.0%)
Initial guess               ....       0.419 sec  (  0.9%)
Orbital Transformation      ....       0.000 sec  (  0.0%)
Orbital Orthonormalization  ....       0.000 sec  (  0.0%)
DIIS solution               ....       0.000 sec  (  0.0%)
Grid generation             ....       1.146 sec  (  2.6%)


-------------------------------------------------------------------------------
                          DFT DISPERSION CORRECTION                            
                                                                               
                              DFTD3 V3.1  Rev 1                                
                              USING zero damping                               
-------------------------------------------------------------------------------
The omegaB97X-D3 functional is recognized. Fit by Chai et al.
Active option DFTDOPT                   ...         3   

molecular C6(AA) [au] = 1616.560486 


            DFT-D V3
 parameters
 s6 scaling factor         :     1.0000 
 rs6 scaling factor        :     1.2810 
 s8 scaling factor         :     1.0000 
 rs8 scaling factor        :     1.0940 
 Damping factor alpha6     :    14.0000 
 Damping factor alpha8     :    16.0000 
 ad hoc parameters k1-k3   :    16.0000     1.3333    -4.0000 

 Edisp/kcal,au: -1.346862343894  -0.002146361539 
 E6   /kcal   :  -0.540820091 
 E8   /kcal   :  -0.806042253 
 % E8         :  59.845926866 

-------------------------   ----------------
Dispersion correction           -0.002146362
-------------------------   ----------------


-------------------------   --------------------
FINAL SINGLE POINT ENERGY      -232.131677227671
-------------------------   --------------------


                            ***************************************
                            *     ORCA property calculations      *
                            ***************************************

                                    ---------------------
                                    Active property flags
                                    ---------------------
   (+) Dipole Moment


------------------------------------------------------------------------------
                       ORCA ELECTRIC PROPERTIES CALCULATION
------------------------------------------------------------------------------

Dipole Moment Calculation                       ... on
Quadrupole Moment Calculation                   ... off
Polarizability Calculation                      ... off
GBWName                                         ... Scan_8.gbw
Electron density file                           ... Scan_8.scfp.tmp

-------------
DIPOLE MOMENT
-------------
                                X             Y             Z
Electronic contribution:     -0.00000       0.00000      -0.00000
Nuclear contribution   :     -0.00000      -0.00000       0.00000
                        -----------------------------------------
Total Dipole Moment    :     -0.00000       0.00000      -0.00000
                        -----------------------------------------
Magnitude (a.u.)       :      0.00000
Magnitude (Debye)      :      0.00000


Timings for individual modules:

Sum of individual times         ...       45.215 sec (=   0.754 min)
GTO integral calculation        ...        0.324 sec (=   0.005 min)   0.7 %
SCF iterations                  ...       44.892 sec (=   0.748 min)  99.3 %
                             ****ORCA TERMINATED NORMALLY****
TOTAL RUN TIME: 0 days 0 hours 0 minutes 45 seconds 543 msec
