
                                 *****************
                                 * O   R   C   A *
                                 *****************

           --- An Ab Initio, DFT and Semiempirical electronic structure package ---

                  #######################################################
                  #                        -***-                        #
                  #  Department of molecular theory and spectroscopy    #
                  #              Directorship: Frank Neese              #
                  # Max Planck Institute for Chemical Energy Conversion #
                  #                  D-45470 Muelheim/Ruhr              #
                  #                       Germany                       #
                  #                                                     #
                  #                  All rights reserved                #
                  #                        -***-                        #
                  #######################################################


                         Program Version 4.0.0.2 - RELEASE -


 With contributions from (in alphabetic order):
   Daniel Aravena         : Magnetic Properties
   Michael Atanasov       : Ab Initio Ligand Field Theory
   Ute Becker             : Parallelization
   Martin Brehm           : Molecular dynamics
   Dmytro Bykov           : SCF Hessian
   Vijay G. Chilkuri      : MRCI spin determinant printing
   Dipayan Datta          : RHF DLPNO-CCSD density
   Achintya Kumar Dutta   : EOM-CC, STEOM-CC
   Dmitry Ganyushin       : Spin-Orbit,Spin-Spin,Magnetic field MRCI
   Yang Guo               : DLPNO-NEVPT2, CIM, IAO-localization
   Andreas Hansen         : Spin unrestricted coupled pair/coupled cluster methods
   Lee Huntington         : MR-EOM, pCC
   Robert Izsak           : Overlap fitted RIJCOSX, COSX-SCS-MP3, EOM
   Christian Kollmar      : KDIIS, OOCD, Brueckner-CCSD(T), CCSD density
   Simone Kossmann        : Meta GGA functionals, TD-DFT gradient, OOMP2, MP2 Hessian
   Martin Krupicka        : AUTO-CI
   Dagmar Lenk            : GEPOL surface
   Dimitrios Liakos       : Extrapolation schemes; parallel MDCI
   Dimitrios Manganas     : ROCIS; embedding schemes
   Dimitrios Pantazis     : SARC Basis sets
   Taras Petrenko         : DFT Hessian,TD-DFT gradient, ASA, ECA, R-Raman, ABS, FL, XAS/XES, NRVS
   Peter Pinski           : DLPNO-MP2
   Christoph Reimann      : Effective Core Potentials
   Marius Retegan         : Local ZFS, SOC
   Christoph Riplinger    : Optimizer, TS searches, QM/MM, DLPNO-CCSD(T), (RO)-DLPNO pert. Triples
   Tobias Risthaus        : Range-separated hybrids, TD-DFT gradient, RPA, STAB
   Michael Roemelt        : Restricted open shell CIS
   Masaaki Saitow         : Open-shell DLPNO
   Barbara Sandhoefer     : DKH picture change effects
   Kantharuban Sivalingam : CASSCF convergence, NEVPT2, FIC-MRCI
   Georgi Stoychev        : AutoAux
   Boris Wezisla          : Elementary symmetry handling
   Frank Wennmohs         : Technical directorship


 We gratefully acknowledge several colleagues who have allowed us to
 interface, adapt or use parts of their codes:
   Stefan Grimme, W. Hujo, H. Kruse,             : VdW corrections, initial TS optimization,
                  C. Bannwarth                     DFT functionals, gCP, sTDA/sTD-DF
   Ed Valeev                                     : LibInt (2-el integral package), F12 methods
   Garnet Chan, S. Sharma, J. Yang, R. Olivares  : DMRG
   Ulf Ekstrom                                   : XCFun DFT Library
   Mihaly Kallay                                 : mrcc  (arbitrary order and MRCC methods)
   Jiri Pittner, Ondrej Demel                    : Mk-CCSD
   Frank Weinhold                                : gennbo (NPA and NBO analysis)
   Christopher J. Cramer and Donald G. Truhlar   : smd solvation model


 Your calculation uses the libint2 library for the computation of 2-el integrals
 For citations please refer to: http://libint.valeyev.net

 This ORCA versions uses:
   CBLAS   interface :  Fast vector & matrix operations
   LAPACKE interface :  Fast linear algebra routines
   SCALAPACK package :  Parallel linear algebra routines


Your calculation utilizes the atom-pairwise dispersion correction
with the zero-damping scheme (D30)
Cite in your paper:
S.Grimme, J.Antony, S.Ehrlich and H.Krieg, J.Chem.Phys., 132, (2010), 154104 
   

XCFun DFT library Copyright 2009-2010 Ulf Ekstrom and contributors.
See http://admol.org/xcfun for more information. This is free soft-
ware; see the source code for copying conditions. There is ABSOLUTELY
NO WARRANTY; not even for MERCHANTABILITY or FITNESS FOR A PARTICULAR
PURPOSE. For details see the documentation. Scientific users of this 
library should cite U. Ekstrom, L. Visscher, R. Bast, A. J. Thorvald-
sen and K. Ruud; J.Chem.Theor.Comp. 2010, DOI: 10.1021/ct100117s
XCFun Version 0.99 
Your calculation utilizes the basis: 6-31G(d)
   H-He, Li-Ne : W. J. Hehre, R. Ditchfield and J.A. Pople, J. Chem. Phys. 56, 2257 (1972).
                 Note: He and Ne are unpublished basis sets taken from the Gaussian program.
                 Note: Li and B from J. D. Dill and J. A. Pople, J. Chem. Phys. 62, 2921 (1975).
   Na - Ar     : M. M. Francl, W. J. Pietro, W. J. Hehre, J. S. Binkley, M. S. Gordon, 
                 D. J. DeFrees and J. A. Pople, J. Chem. Phys. 77, 3654 (1982).
   K - Zn      : V. A. Rassolov, J. A. Pople, M. A. Ratner, and T. L. Windus, J. Chem. Phys. 109, 1223 (1998).

================================================================================
                                        WARNINGS
                       Please study these warnings very carefully!
================================================================================

Warning: TCutStore was < 0. Adjusted to Thresh (uncritical)

INFO   : the flag for use of LIBINT has been found!

================================================================================
                                       INPUT FILE
================================================================================
NAME = initial9.inp
|  1> ! WB97X-D3 6-31G(d) VerySlowConv
|  2> ! KDIIS NOSOSCF
|  3> %base "Scan_9"
|  4> 
|  5> %scf
|  6> maxiter 999
|  7> end
|  8> 
|  9> * xyz 0 1
| 10> C          1.480828128662   -2.846432058012   -0.000000000000
| 11> H          2.560813866188   -2.929111464859    0.000000000000
| 12> C          0.894922998853   -1.624768821819   -0.000000000000
| 13> H          1.506518336565   -0.730813442405   -0.000000000000
| 14> C         -0.456020963330   -1.521345930300   -0.000000000000
| 15> H         -0.924411365185   -0.544711142450   -0.000000000000
| 16> C         -1.221059795321   -2.639586275219   -0.000000000000
| 17> H         -2.301045532599   -2.556906865131   -0.000000000000
| 18> C         -0.635154665435   -3.861249511571   -0.000000000000
| 19> H         -1.246750000465   -4.755204892821   -0.000000000000
| 20> C          0.715789296571   -3.964672403077    0.000000000000
| 21> H          1.184179695495   -4.941307192334    0.000000000000
| 22> **                         ****END OF INPUT****
================================================================================

                       ****************************
                       * Single Point Calculation *
                       ****************************

---------------------------------
CARTESIAN COORDINATES (ANGSTROEM)
---------------------------------
  C      1.480828   -2.846432   -0.000000
  H      2.560814   -2.929111    0.000000
  C      0.894923   -1.624769   -0.000000
  H      1.506518   -0.730813   -0.000000
  C     -0.456021   -1.521346   -0.000000
  H     -0.924411   -0.544711   -0.000000
  C     -1.221060   -2.639586   -0.000000
  H     -2.301046   -2.556907   -0.000000
  C     -0.635155   -3.861250   -0.000000
  H     -1.246750   -4.755205   -0.000000
  C      0.715789   -3.964672    0.000000
  H      1.184180   -4.941307    0.000000

----------------------------
CARTESIAN COORDINATES (A.U.)
----------------------------
  NO LB      ZA    FRAG     MASS         X           Y           Z
   0 C     6.0000    0    12.011    2.798360   -5.378977   -0.000000
   1 H     1.0000    0     1.008    4.839237   -5.535218    0.000000
   2 C     6.0000    0    12.011    1.691159   -3.070368   -0.000000
   3 H     1.0000    0     1.008    2.846907   -1.381037   -0.000000
   4 C     6.0000    0    12.011   -0.861755   -2.874927   -0.000000
   5 H     1.0000    0     1.008   -1.746884   -1.029355   -0.000000
   6 C     6.0000    0    12.011   -2.307469   -4.988095   -0.000000
   7 H     1.0000    0     1.008   -4.348346   -4.831854   -0.000000
   8 C     6.0000    0    12.011   -1.200268   -7.296704   -0.000000
   9 H     1.0000    0     1.008   -2.356016   -8.986035   -0.000000
  10 C     6.0000    0    12.011    1.352646   -7.492145    0.000000
  11 H     1.0000    0     1.008    2.237775   -9.337717    0.000000

--------------------------------
INTERNAL COORDINATES (ANGSTROEM)
--------------------------------
 C      0   0   0     0.000000000000     0.00000000     0.00000000
 H      1   0   0     1.083145917029     0.00000000     0.00000000
 C      1   2   0     1.354897001178   119.99999991     0.00000000
 H      3   1   2     1.083145916991   119.99999994     0.00000000
 C      3   1   2     1.354897001048   120.00000000   180.00000000
 H      5   3   1     1.083145916942   120.00000008   180.00000000
 C      5   3   1     1.354897001052   119.99999997     0.00000000
 H      7   5   3     1.083145917029   119.99999989   180.00000000
 C      7   5   3     1.354897001355   120.00000002     0.00000000
 H      9   7   5     1.083145916992   120.00000011   180.00000000
 C      9   7   5     1.354897000871   120.00000000     0.00000000
 H     11   9   7     1.083145916943   119.99999991   180.00000085

---------------------------
INTERNAL COORDINATES (A.U.)
---------------------------
 C      0   0   0     0.000000000000     0.00000000     0.00000000
 H      1   0   0     2.046849146259     0.00000000     0.00000000
 C      1   2   0     2.560384271898   119.99999991     0.00000000
 H      3   1   2     2.046849146188   119.99999994     0.00000000
 C      3   1   2     2.560384271652   120.00000000   180.00000000
 H      5   3   1     2.046849146096   120.00000008   180.00000000
 C      5   3   1     2.560384271659   119.99999997     0.00000000
 H      7   5   3     2.046849146260   119.99999989   180.00000000
 C      7   5   3     2.560384272232   120.00000002     0.00000000
 H      9   7   5     2.046849146190   120.00000011   180.00000000
 C      9   7   5     2.560384271317   120.00000000     0.00000000
 H     11   9   7     2.046849146098   119.99999991   180.00000085

---------------------
BASIS SET INFORMATION
---------------------
There are 2 groups of distinct atoms

 Group   1 Type C   : 10s4p1d contracted to 3s2p1d pattern {631/31/1}
 Group   2 Type H   : 4s contracted to 2s pattern {31}

Atom   0C    basis set group =>   1
Atom   1H    basis set group =>   2
Atom   2C    basis set group =>   1
Atom   3H    basis set group =>   2
Atom   4C    basis set group =>   1
Atom   5H    basis set group =>   2
Atom   6C    basis set group =>   1
Atom   7H    basis set group =>   2
Atom   8C    basis set group =>   1
Atom   9H    basis set group =>   2
Atom  10C    basis set group =>   1
Atom  11H    basis set group =>   2
------------------------------------------------------------------------------
                           ORCA GTO INTEGRAL CALCULATION
------------------------------------------------------------------------------

                         BASIS SET STATISTICS AND STARTUP INFO

 # of primitive gaussian shells          ...  114
 # of primitive gaussian functions       ...  186
 # of contracted shells                  ...   48
 # of contracted basis functions         ...   96
 Highest angular momentum                ...    2
 Maximum contraction depth               ...    6
 Integral package used                   ... LIBINT
 Integral threshhold            Thresh   ...  1.000e-10
 Primitive cut-off              TCut     ...  1.000e-11


------------------------------ INTEGRAL EVALUATION ----------------------------


 * One electron integrals 
 Pre-screening matrix                    ... done
 Shell pair data                         ... done (   0.001 sec)

-------------------------------------------------------------------------------
                                 ORCA SCF
-------------------------------------------------------------------------------

------------
SCF SETTINGS
------------
Hamiltonian:
 Density Functional     Method          .... DFT(GTOs)
 Exchange Functional    Exchange        .... WB97X-D3
 Correlation Functional Correlation     .... WB97X-D3
 Gradients option       PostSCFGGA      .... off
 Hybrid DFT is turned on
   Fraction HF Exchange ScalHFX         ....  0.195728
   Scaling of DF-GGA-X  ScalDFX         ....  0.000000
   Scaling of DF-GGA-C  ScalDFC         ....  1.000000
   Scaling of DF-LDA-C  ScalLDAC        ....  1.000000
   Perturbative correction              ....  0.000000
 Long-range corrected/Screened/Range-Separated Hybrid DFT is turned on
   Amount of maximum screened exact exchange              ....  0.804272
   Range separation parameter mu (erf(mu*r12)/r12)        ....  0.250000


General Settings:
 Integral files         IntName         .... Scan_9
 Hartree-Fock type      HFTyp           .... RHF
 Total Charge           Charge          ....    0
 Multiplicity           Mult            ....    1
 Number of Electrons    NEL             ....   42
 Basis Dimension        Dim             ....   96
 Nuclear Repulsion      ENuc            ....    208.6025074730 Eh

Convergence Acceleration:
 DIIS                   CNVDIIS         .... on
   Start iteration      DIISMaxIt       ....     0
   Startup error        DIISStart       ....  0.200000
   # of expansion vecs  DIISMaxEq       ....     5
   Bias factor          DIISBfac        ....   1.050
   Max. coefficient     DIISMaxC        ....  10.000
 Newton-Raphson         CNVNR           .... off
 SOSCF                  CNVSOSCF        .... off
 Level Shifting         CNVShift        .... off
 Zerner damping         CNVZerner       .... off
 Static damping         CNVDamp         .... off
 Fernandez-Rico         CNVRico         .... off

SCF Procedure:
 Maximum # iterations   MaxIter         ....   999
 SCF integral mode      SCFMode         .... Direct
   Integral package                     .... LIBINT
 Reset frequeny         DirectResetFreq ....    20
 Integral Threshold     Thresh          ....  1.000e-10 Eh
 Primitive CutOff       TCut            ....  1.000e-11 Eh

Convergence Tolerance:
 Convergence Check Mode ConvCheckMode   .... All-Criteria
 Convergence forced     ConvForced      .... 0
 Energy Change          TolE            ....  1.000e-06 Eh
 Max Density Change     TolMaxP         ....  1.000e-05
 RMS Density Change     TolRMSP         ....  1.000e-06
 DIIS Error             TolErr          ....  1.000e-06


Diagonalization of the overlap matrix:
Smallest eigenvalue                        ... 4.002e-04
Time for diagonalization                   ...    0.003 sec
Threshold for overlap eigenvalues          ... 1.000e-08
Number of eigenvalues below threshold      ... 0
Time for construction of square roots      ...    0.063 sec
Total time needed                          ...    0.066 sec

-------------------
DFT GRID GENERATION
-------------------

General Integration Accuracy     IntAcc      ...  4.340
Radial Grid Type                 RadialGrid  ... Gauss-Chebyshev
Angular Grid (max. acc.)         AngularGrid ... Lebedev-110
Angular grid pruning method      GridPruning ... 3 (G Style)
Weight generation scheme         WeightScheme... Becke
Basis function cutoff            BFCut       ...    1.0000e-10
Integration weight cutoff        WCut        ...    1.0000e-14
Grids for H and He will be reduced by one unit

# of grid points (after initial pruning)     ...  14700 (   0.0 sec)
# of grid points (after weights+screening)   ...  13748 (   0.1 sec)
nearest neighbour list constructed           ...    0.0 sec
Grid point re-assignment to atoms done       ...    0.0 sec
Grid point division into batches done        ...    0.0 sec
Reduced shell lists constructed in    0.3 sec

Total number of grid points                  ...    13748
Total number of batches                      ...      220
Average number of points per batch           ...       62
Average number of grid points per atom       ...     1146
Average number of shells per batch           ...    37.78 (78.71%)
Average number of basis functions per batch  ...    78.11 (81.36%)
Average number of large shells per batch     ...    31.44 (83.21%)
Average number of large basis fcns per batch ...    65.66 (84.06%)
Maximum spatial batch extension              ...  17.47, 20.96, 25.60 au
Average spatial batch extension              ...   3.65,  4.10,  5.40 au

Time for grid setup =    0.420 sec

------------------------------
INITIAL GUESS: MODEL POTENTIAL
------------------------------
Loading Hartree-Fock densities                     ... done
Calculating cut-offs                               ... done
Setting up the integral package                    ... done
Initializing the effective Hamiltonian             ... done
Starting the Coulomb interaction                   ... done (   0.1 sec)
Reading the grid                                   ... done
Mapping shells                                     ... done
Starting the XC term evaluation                    ... done (   0.3 sec)
  promolecular density results
     # of electrons  =     42.004339026
     EX              =    -32.508880971
     EC              =     -1.379553508
     EX+EC           =    -33.888434478
Transforming the Hamiltonian                       ... done (   0.0 sec)
Diagonalizing the Hamiltonian                      ... done (   0.0 sec)
Back transforming the eigenvectors                 ... done (   0.0 sec)
Now organizing SCF variables                       ... done
                      ------------------
                      INITIAL GUESS DONE (   1.0 sec)
                      ------------------
--------------
SCF ITERATIONS
--------------
ITER       Energy         Delta-E        Max-DP      RMS-DP      [F,P]   Gradient Norm
               ***  Starting incremental Fock matrix formation  ***
                             ****Resetting KDIIS****
                             ****Turning on KDIIS(Cayley)****
  0   -232.0055356871   0.000000000000 0.01775730  0.00108661  0.0912116   0.079279808
  1   -232.0522898749  -0.046754187863 0.01571942  0.00121151  0.0778997   0.066304744
  2   -232.0900201980  -0.037730323025 0.02544647  0.00193416  0.0631295   0.053969406
  3   -232.1356051559  -0.045584957901 0.03839530  0.00283842  0.0384823   0.033131469
  4   -232.1628692301  -0.027264074194 0.00208439  0.00024211  0.0016235   0.001416697
  5   -232.1629322528  -0.000063022757 0.00197628  0.00022248  0.0007807   0.000545807
  6   -232.1629406668  -0.000008414016 0.00063447  0.00007808  0.0003609   0.000315693
  7   -232.1629442032  -0.000003536417 0.00008102  0.00000552  0.0000369   0.000040991
                          ***Energy convergence achieved***
                           ***RMSP convergence achieved***
  8   -232.1629442455  -0.000000042269 0.00001297  0.00000087  0.0000042   0.000004207
                           ***MAXP convergence achieved***
                    *** KDIIS BlockDiag ( 0.002 sec) ***

               *****************************************************
               *                     SUCCESS                       *
               *           SCF CONVERGED AFTER   9 CYCLES          *
               *****************************************************

Setting up the final grid:

General Integration Accuracy     IntAcc      ...  4.670
Radial Grid Type                 RadialGrid  ... Gauss-Chebyshev
Angular Grid (max. acc.)         AngularGrid ... Lebedev-302
Angular grid pruning method      GridPruning ... 3 (G Style)
Weight generation scheme         WeightScheme... Becke
Basis function cutoff            BFCut       ...    1.0000e-10
Integration weight cutoff        WCut        ...    1.0000e-14
Grids for H and He will be reduced by one unit

# of grid points (after initial pruning)     ...  57636 (   0.1 sec)
# of grid points (after weights+screening)   ...  53304 (   0.1 sec)
nearest neighbour list constructed           ...    0.0 sec
Grid point re-assignment to atoms done       ...    0.0 sec
Grid point division into batches done        ...    0.2 sec
Reduced shell lists constructed in    1.3 sec

Total number of grid points                  ...    53304
Total number of batches                      ...      840
Average number of points per batch           ...       63
Average number of grid points per atom       ...     4442
Average number of shells per batch           ...    34.39 (71.66%)
Average number of basis functions per batch  ...    71.05 (74.01%)
Average number of large shells per batch     ...    27.97 (81.31%)
Average number of large basis fcns per batch ...    57.94 (81.56%)
Maximum spatial batch extension              ...  15.20, 19.27, 17.88 au
Average spatial batch extension              ...   2.48,  2.61,  2.95 au

Final grid set up in    1.4 sec
Final integration                            ... done (   1.4 sec)
Change in XC energy                          ...     0.000874093
Integrated number of electrons               ...    41.999931184
Previous integrated no of electrons          ...    42.002900798

----------------
TOTAL SCF ENERGY
----------------

Total Energy       :         -232.16207015 Eh           -6317.45110 eV

Components:
Nuclear Repulsion  :          208.60250747 Eh            5676.36281 eV
Electronic Energy  :         -440.76457763 Eh          -11993.81391 eV
One Electron Energy:         -724.45269110 Eh          -19713.35993 eV
Two Electron Energy:          283.68811347 Eh            7719.54602 eV

Virial components:
Potential Energy   :         -463.46920204 Eh          -12611.63815 eV
Kinetic Energy     :          231.30713188 Eh            6294.18705 eV
Virial Ratio       :            2.00369612


DFT components:
N(Alpha)           :       20.999965591898 electrons
N(Beta)            :       20.999965591898 electrons
N(Total)           :       41.999931183795 electrons
E(XC)              :      -23.868873699518 Eh       

---------------
SCF CONVERGENCE
---------------

  Last Energy change         ...   -1.6519e-09  Tolerance :   1.0000e-06
  Last MAX-Density change    ...    3.1997e-06  Tolerance :   1.0000e-05
  Last RMS-Density change    ...    2.1158e-07  Tolerance :   1.0000e-06
  Last DIIS Error            ...    1.6697e-06  Tolerance :   1.0000e-06

             **** THE GBW FILE WAS UPDATED (Scan_9.gbw) ****
             **** DENSITY FILE WAS UPDATED (Scan_9.scfp.tmp) ****
             **** ENERGY FILE WAS UPDATED (Scan_9.en.tmp) ****
----------------
ORBITAL ENERGIES
----------------

  NO   OCC          E(Eh)            E(eV) 
   0   2.0000     -10.272865      -279.5389 
   1   2.0000     -10.272623      -279.5323 
   2   2.0000     -10.272506      -279.5291 
   3   2.0000     -10.271952      -279.5140 
   4   2.0000     -10.271847      -279.5112 
   5   2.0000     -10.271609      -279.5047 
   6   2.0000      -0.986433       -26.8422 
   7   2.0000      -0.865335       -23.5470 
   8   2.0000      -0.865270       -23.5452 
   9   2.0000      -0.710142       -19.3239 
  10   2.0000      -0.710055       -19.3216 
  11   2.0000      -0.634286       -17.2598 
  12   2.0000      -0.550500       -14.9799 
  13   2.0000      -0.548563       -14.9272 
  14   2.0000      -0.516919       -14.0661 
  15   2.0000      -0.516729       -14.0609 
  16   2.0000      -0.477766       -13.0007 
  17   2.0000      -0.428515       -11.6605 
  18   2.0000      -0.428248       -11.6532 
  19   2.0000      -0.337289        -9.1781 
  20   2.0000      -0.337112        -9.1733 
  21   0.0000       0.092049         2.5048 
  22   0.0000       0.092231         2.5097 
  23   0.0000       0.179857         4.8941 
  24   0.0000       0.239882         6.5275 
  25   0.0000       0.240411         6.5419 
  26   0.0000       0.283673         7.7191 
  27   0.0000       0.285857         7.7786 
  28   0.0000       0.286317         7.7911 
  29   0.0000       0.296362         8.0644 
  30   0.0000       0.408434        11.1140 
  31   0.0000       0.408915        11.1271 
  32   0.0000       0.430818        11.7232 
  33   0.0000       0.431415        11.7394 
  34   0.0000       0.557936        15.1822 
  35   0.0000       0.622712        16.9449 
  36   0.0000       0.658230        17.9113 
  37   0.0000       0.695332        18.9209 
  38   0.0000       0.695715        18.9314 
  39   0.0000       0.697128        18.9698 
  40   0.0000       0.697291        18.9743 
  41   0.0000       0.701437        19.0871 
  42   0.0000       0.730814        19.8865 
  43   0.0000       0.730910        19.8891 
  44   0.0000       0.738334        20.0911 
  45   0.0000       0.738522        20.0962 
  46   0.0000       0.774769        21.0825 
  47   0.0000       0.775625        21.1058 
  48   0.0000       0.858416        23.3587 
  49   0.0000       0.951539        25.8927 
  50   0.0000       0.951962        25.9042 
  51   0.0000       0.961193        26.1554 
  52   0.0000       0.961333        26.1592 
  53   0.0000       0.979975        26.6665 
  54   0.0000       1.050146        28.5759 
  55   0.0000       1.066157        29.0116 
  56   0.0000       1.066365        29.0173 
  57   0.0000       1.107495        30.1365 
  58   0.0000       1.201080        32.6831 
  59   0.0000       1.201305        32.6892 
  60   0.0000       1.271641        34.6031 
  61   0.0000       1.272442        34.6249 
  62   0.0000       1.343560        36.5601 
  63   0.0000       1.357736        36.9459 
  64   0.0000       1.470403        40.0117 
  65   0.0000       1.560382        42.4602 
  66   0.0000       1.560675        42.4681 
  67   0.0000       1.599751        43.5314 
  68   0.0000       1.600351        43.5478 
  69   0.0000       1.615763        43.9671 
  70   0.0000       1.616235        43.9800 
  71   0.0000       1.851239        50.3748 
  72   0.0000       1.925716        52.4014 
  73   0.0000       1.983301        53.9684 
  74   0.0000       2.053900        55.8895 
  75   0.0000       2.102609        57.2149 
  76   0.0000       2.103849        57.2486 
  77   0.0000       2.241015        60.9811 
  78   0.0000       2.241900        61.0052 
  79   0.0000       2.278728        62.0073 
  80   0.0000       2.279166        62.0193 
  81   0.0000       2.315186        62.9994 
  82   0.0000       2.316603        63.0380 
  83   0.0000       2.448583        66.6293 
  84   0.0000       2.448873        66.6372 
  85   0.0000       2.475550        67.3631 
  86   0.0000       2.668390        72.6106 
  87   0.0000       2.669173        72.6319 
  88   0.0000       2.837749        77.2191 
  89   0.0000       2.877896        78.3115 
  90   0.0000       2.885084        78.5071 
  91   0.0000       2.886657        78.5499 
  92   0.0000       2.901525        78.9545 
  93   0.0000       2.902811        78.9895 
  94   0.0000       3.177421        86.4620 
  95   0.0000       3.644769        99.1792 

                    ********************************
                    * MULLIKEN POPULATION ANALYSIS *
                    ********************************

-----------------------
MULLIKEN ATOMIC CHARGES
-----------------------
   0 C :   -0.165078
   1 H :    0.163885
   2 C :   -0.161878
   3 H :    0.162833
   4 C :   -0.161269
   5 H :    0.161508
   6 C :   -0.165079
   7 H :    0.163885
   8 C :   -0.161878
   9 H :    0.162833
  10 C :   -0.161269
  11 H :    0.161508
Sum of atomic charges:    0.0000000

--------------------------------
MULLIKEN REDUCED ORBITAL CHARGES
--------------------------------
  0 C s       :     3.152886  s :     3.152886
      pz      :     0.990173  p :     2.972865
      px      :     1.035406
      py      :     0.947286
      dz2     :     0.003427  d :     0.039327
      dxz     :     0.002491
      dyz     :     0.007247
      dx2y2   :     0.015431
      dxy     :     0.010731
  1 H s       :     0.836115  s :     0.836115
  2 C s       :     3.154011  s :     3.154011
      pz      :     0.990474  p :     2.968543
      px      :     0.972404
      py      :     1.005665
      dz2     :     0.003403  d :     0.039325
      dxz     :     0.005747
      dyz     :     0.004002
      dx2y2   :     0.011306
      dxy     :     0.014866
  3 H s       :     0.837167  s :     0.837167
  4 C s       :     3.154459  s :     3.154459
      pz      :     0.990117  p :     2.967491
      px      :     0.961095
      py      :     1.016279
      dz2     :     0.003427  d :     0.039318
      dxz     :     0.006386
      dyz     :     0.003364
      dx2y2   :     0.012522
      dxy     :     0.013620
  5 H s       :     0.838492  s :     0.838492
  6 C s       :     3.152886  s :     3.152886
      pz      :     0.990173  p :     2.972865
      px      :     1.035406
      py      :     0.947286
      dz2     :     0.003427  d :     0.039327
      dxz     :     0.002491
      dyz     :     0.007247
      dx2y2   :     0.015431
      dxy     :     0.010731
  7 H s       :     0.836115  s :     0.836115
  8 C s       :     3.154011  s :     3.154011
      pz      :     0.990474  p :     2.968543
      px      :     0.972404
      py      :     1.005665
      dz2     :     0.003403  d :     0.039325
      dxz     :     0.005747
      dyz     :     0.004002
      dx2y2   :     0.011306
      dxy     :     0.014866
  9 H s       :     0.837167  s :     0.837167
 10 C s       :     3.154459  s :     3.154459
      pz      :     0.990117  p :     2.967491
      px      :     0.961095
      py      :     1.016279
      dz2     :     0.003427  d :     0.039318
      dxz     :     0.006386
      dyz     :     0.003364
      dx2y2   :     0.012522
      dxy     :     0.013620
 11 H s       :     0.838492  s :     0.838492


                     *******************************
                     * LOEWDIN POPULATION ANALYSIS *
                     *******************************

----------------------
LOEWDIN ATOMIC CHARGES
----------------------
   0 C :   -0.137185
   1 H :    0.136986
   2 C :   -0.137035
   3 H :    0.137020
   4 C :   -0.136755
   5 H :    0.136967
   6 C :   -0.137185
   7 H :    0.136986
   8 C :   -0.137035
   9 H :    0.137020
  10 C :   -0.136755
  11 H :    0.136967

-------------------------------
LOEWDIN REDUCED ORBITAL CHARGES
-------------------------------
  0 C s       :     2.894585  s :     2.894585
      pz      :     0.980106  p :     3.147317
      px      :     1.079456
      py      :     1.087755
      dz2     :     0.006580  d :     0.095282
      dxz     :     0.003830
      dyz     :     0.015971
      dx2y2   :     0.039355
      dxy     :     0.029546
  1 H s       :     0.863014  s :     0.863014
  2 C s       :     2.894636  s :     2.894636
      pz      :     0.980432  p :     3.147057
      px      :     1.084778
      py      :     1.081846
      dz2     :     0.006563  d :     0.095342
      dxz     :     0.012130
      dyz     :     0.007681
      dx2y2   :     0.030749
      dxy     :     0.038220
  3 H s       :     0.862980  s :     0.862980
  4 C s       :     2.894633  s :     2.894633
      pz      :     0.980047  p :     3.146825
      px      :     1.086414
      py      :     1.080364
      dz2     :     0.006575  d :     0.095297
      dxz     :     0.013750
      dyz     :     0.006054
      dx2y2   :     0.033345
      dxy     :     0.035573
  5 H s       :     0.863033  s :     0.863033
  6 C s       :     2.894585  s :     2.894585
      pz      :     0.980106  p :     3.147317
      px      :     1.079456
      py      :     1.087755
      dz2     :     0.006580  d :     0.095282
      dxz     :     0.003830
      dyz     :     0.015971
      dx2y2   :     0.039355
      dxy     :     0.029546
  7 H s       :     0.863014  s :     0.863014
  8 C s       :     2.894636  s :     2.894636
      pz      :     0.980432  p :     3.147057
      px      :     1.084778
      py      :     1.081846
      dz2     :     0.006563  d :     0.095342
      dxz     :     0.012130
      dyz     :     0.007681
      dx2y2   :     0.030749
      dxy     :     0.038220
  9 H s       :     0.862980  s :     0.862980
 10 C s       :     2.894633  s :     2.894633
      pz      :     0.980047  p :     3.146825
      px      :     1.086414
      py      :     1.080364
      dz2     :     0.006575  d :     0.095297
      dxz     :     0.013750
      dyz     :     0.006054
      dx2y2   :     0.033345
      dxy     :     0.035573
 11 H s       :     0.863033  s :     0.863033


                      *****************************
                      * MAYER POPULATION ANALYSIS *
                      *****************************

  NA   - Mulliken gross atomic population
  ZA   - Total nuclear charge
  QA   - Mulliken gross atomic charge
  VA   - Mayer's total valence
  BVA  - Mayer's bonded valence
  FA   - Mayer's free valence

  ATOM       NA         ZA         QA         VA         BVA        FA
  0 C      6.1651     6.0000    -0.1651     3.9677     3.9677    -0.0000
  1 H      0.8361     1.0000     0.1639     0.9325     0.9325     0.0000
  2 C      6.1619     6.0000    -0.1619     3.9663     3.9663     0.0000
  3 H      0.8372     1.0000     0.1628     0.9328     0.9328     0.0000
  4 C      6.1613     6.0000    -0.1613     3.9682     3.9682     0.0000
  5 H      0.8385     1.0000     0.1615     0.9334     0.9334    -0.0000
  6 C      6.1651     6.0000    -0.1651     3.9677     3.9677     0.0000
  7 H      0.8361     1.0000     0.1639     0.9325     0.9325     0.0000
  8 C      6.1619     6.0000    -0.1619     3.9663     3.9663     0.0000
  9 H      0.8372     1.0000     0.1628     0.9328     0.9328     0.0000
 10 C      6.1613     6.0000    -0.1613     3.9682     3.9682    -0.0000
 11 H      0.8385     1.0000     0.1615     0.9334     0.9334    -0.0000

  Mayer bond orders larger than 0.1
B(  0-C ,  1-H ) :   0.9316 B(  0-C ,  2-C ) :   1.4676 B(  0-C , 10-C ) :   1.4688 
B(  2-C ,  3-H ) :   0.9320 B(  2-C ,  4-C ) :   1.4675 B(  4-C ,  5-H ) :   0.9325 
B(  4-C ,  6-C ) :   1.4688 B(  6-C ,  7-H ) :   0.9316 B(  6-C ,  8-C ) :   1.4676 
B(  8-C ,  9-H ) :   0.9320 B(  8-C , 10-C ) :   1.4675 B( 10-C , 11-H ) :   0.9325 


-------
TIMINGS
-------

Total SCF time: 0 days 0 hours 1 min 5 sec 

Total time                  ....      65.367 sec
Sum of individual times     ....      64.984 sec  ( 99.4%)

Fock matrix formation       ....      62.331 sec  ( 95.4%)
  XC integration            ....       5.544 sec  (  8.9% of F)
    Basis function eval.    ....       2.607 sec  ( 47.0% of XC)
    Density eval.           ....       0.441 sec  (  8.0% of XC)
    XC-Functional eval.     ....       0.834 sec  ( 15.1% of XC)
    XC-Potential eval.      ....       0.831 sec  ( 15.0% of XC)
Diagonalization             ....       0.140 sec  (  0.2%)
Density matrix formation    ....       0.001 sec  (  0.0%)
Population analysis         ....       0.035 sec  (  0.1%)
Initial guess               ....       0.610 sec  (  0.9%)
Orbital Transformation      ....       0.000 sec  (  0.0%)
Orbital Orthonormalization  ....       0.000 sec  (  0.0%)
DIIS solution               ....       0.000 sec  (  0.0%)
Grid generation             ....       1.867 sec  (  2.9%)


-------------------------------------------------------------------------------
                          DFT DISPERSION CORRECTION                            
                                                                               
                              DFTD3 V3.1  Rev 1                                
                              USING zero damping                               
-------------------------------------------------------------------------------
The omegaB97X-D3 functional is recognized. Fit by Chai et al.
Active option DFTDOPT                   ...         3   

molecular C6(AA) [au] = 1646.664595 


            DFT-D V3
 parameters
 s6 scaling factor         :     1.0000 
 rs6 scaling factor        :     1.2810 
 s8 scaling factor         :     1.0000 
 rs8 scaling factor        :     1.0940 
 Damping factor alpha6     :    14.0000 
 Damping factor alpha8     :    16.0000 
 ad hoc parameters k1-k3   :    16.0000     1.3333    -4.0000 

 Edisp/kcal,au: -1.352892095329  -0.002155970558 
 E6   /kcal   :  -0.568762283 
 E8   /kcal   :  -0.784129812 
 % E8         :  57.959523524 

-------------------------   ----------------
Dispersion correction           -0.002155971
-------------------------   ----------------


-------------------------   --------------------
FINAL SINGLE POINT ENERGY      -232.164226124823
-------------------------   --------------------


                            ***************************************
                            *     ORCA property calculations      *
                            ***************************************

                                    ---------------------
                                    Active property flags
                                    ---------------------
   (+) Dipole Moment


------------------------------------------------------------------------------
                       ORCA ELECTRIC PROPERTIES CALCULATION
------------------------------------------------------------------------------

Dipole Moment Calculation                       ... on
Quadrupole Moment Calculation                   ... off
Polarizability Calculation                      ... off
GBWName                                         ... Scan_9.gbw
Electron density file                           ... Scan_9.scfp.tmp

-------------
DIPOLE MOMENT
-------------
                                X             Y             Z
Electronic contribution:     -0.00000      -0.00000      -0.00000
Nuclear contribution   :     -0.00000      -0.00000       0.00000
                        -----------------------------------------
Total Dipole Moment    :     -0.00000      -0.00000      -0.00000
                        -----------------------------------------
Magnitude (a.u.)       :      0.00000
Magnitude (Debye)      :      0.00000


Timings for individual modules:

Sum of individual times         ...       65.966 sec (=   1.099 min)
GTO integral calculation        ...        0.553 sec (=   0.009 min)   0.8 %
SCF iterations                  ...       65.413 sec (=   1.090 min)  99.2 %
                             ****ORCA TERMINATED NORMALLY****
TOTAL RUN TIME: 0 days 0 hours 1 minutes 6 seconds 777 msec
